/*--------------------------------*- C++ -*----------------------------------*\
| =========                 |                                                 |
| \\      /  F ield         | OpenFOAM: The Open Source CFD Toolbox           |
|  \\    /   O peration     | Version:  2306                                  |
|   \\  /    A nd           | Website:  www.openfoam.com                      |
|    \\/     M anipulation  |                                                 |
\*---------------------------------------------------------------------------*/
FoamFile
{
    version     2.0;
    format      ascii;
    arch        "LSB;label=32;scalar=64";
    class       volScalarField;
    location    "1.7";
    object      gradTx;
}
// * * * * * * * * * * * * * * * * * * * * * * * * * * * * * * * * * * * * * //

dimensions      [0 -1 0 1 0 0 0];

internalField   nonuniform List<scalar> 
5712
(
-6859.78
-8768.26
-16258.8
-23768.8
-24257.1
-41854.9
-18611.9
-47399.5
-15145.4
-33278.1
-22651.4
-34470.4
-20307.8
-26660.3
-8937.2
-10227.2
-15361
-17609.1
-19803.9
-19638.9
-15555.1
-19195.9
-22907.6
-20534.6
-5599.73
-4231.3
-6960.33
-4700.51
-12992.8
-10434.9
-22148.3
-16089.7
-17142.9
-17842.4
-19084.4
-18297.1
-6769.32
-5261.51
-40484.7
-54189.9
-26168.4
-32118.6
-54333.7
-70516.8
-28103.6
-32178.2
-30069.5
-42464.7
-26268.5
-34791.8
-15409
-24794.9
-2982.51
-1007.76
-3135.87
-1132.65
-8996.67
-3639.68
-12308.1
-4539.14
-8803.75
-3369.87
-9297.92
-2986.34
-15814
-5038.61
-20390.4
-6889.33
-24754.4
-12336.2
-22662.5
-13427.5
-23126.3
-14965.4
-20346.1
-15253.4
-17894.9
-10642.7
-17920.3
-9175.44
-23387.5
-14910.9
-23442.6
-15037.2
-21497.7
-16120.7
-21758
-16178.4
-19317.5
-12255
-20004.5
-12546.8
-18321.6
-7971.59
-8502.87
-10406.5
-18395
-8730.35
-7453.03
-10595.5
-19392.8
-7919.4
-9611.26
-10453.6
-20351.3
-8104.03
-10440.3
-10903.9
-3862.29
-4225.29
-1303.87
-2583.23
-11275.4
-11931.3
-4390.75
-7874.59
-14445.7
-16010.8
-7061.88
-12053
-12301.7
-897.866
-13842.3
-17263.9
-9476.73
-550.582
-7338.12
-12541.7
-20306
-14412.5
-10208.3
-12473
-11011.6
-9599.33
-15102.9
-3680.46
-3010.75
-2112.34
-2090.09
-10341.2
-8641.77
-6297.72
-5974.96
-12869.2
-10754.1
-8222.73
-7350.37
-5787.47
-7418.26
-12031.1
-12522.9
-14338.7
-13027.2
-16195
-14018.6
-11169.2
-9408.22
-9181.09
-9539.25
-12155.8
-9403.53
-11141.5
-7933.07
-9712.28
-6549.17
-11463.2
-7451.04
-10361.8
-4607.39
-8946.33
-9571.81
-12701.8
-16423
-13992.6
-20274.8
-7154.29
-7828.4
-9204.84
-2674.84
-7992.6
-15296.8
-7592.91
-16442.3
-13864
-25057
-14109.7
-26640.2
-6088.81
-13215.1
-5552.47
-14124.6
-8444.06
-6269.33
-11823.3
-4590.8
-8611.06
-1434.37
-10265.5
-519.379
-8142.58
-9503.38
-12399.5
-5686.49
-6757.88
-11241.9
-10994.5
-7487.25
-2364.53
-2065.23
-1815.49
-1704.02
-1549.86
-1368.11
-6967.77
-5617.71
-4790.42
-4521.73
-3565.6
-3045.77
-8437.28
-7160.95
-6562.14
-5425.62
-4331.7
-4051.24
-6434.78
-5580.49
-5402.36
-10845.6
-8053.06
-6698.35
-10349.6
-7466.56
-5958.42
-10836.7
-8381.78
-7208.08
-6919.28
-4454.42
-3418.12
-15595.3
-13242.7
-11296.4
-10139.9
-8268.98
-6725.87
-9140.24
-6938.63
-5401.28
-7784.6
-5486.27
-4095.36
-8186.02
-4475.78
-2444.51
-10550.5
-14251
-8377.54
-10782.1
-11456.9
-16780.7
-10263.7
-14879.2
-22.6672
-713.978
520.098
-101.506
-2967.95
-3330.18
-1239.84
-663.913
-700.441
-2402.79
-9482.97
-13801.9
-6661.22
-3713.51
-10081.7
-10010.7
-15634.4
-17226.3
617.384
4217.38
-7654.4
-7205.04
-7288.3
-5616
-1017.25
-535.516
-677.012
-282.046
-1957.8
-158.379
358.252
860.81
-9246.2
-2328.99
-6296.63
-1610.02
-9131.09
-2764.11
-11051.1
-3523.59
-8953.69
-11994.2
-8262.57
-11683.8
-14500.9
-15261.4
-13820.1
-14429.4
-5639.91
-9338.98
-6525.19
-9287.77
-8761.69
-11244.7
-9658.48
-11347.1
-14394.4
-14158.6
-15065.3
-14204.3
-5689.55
-9026.55
-6186.07
-9180.22
251.27
-1197.93
-7231.05
-4367.32
802.518
-790.294
-6699.06
-3849.41
-210.512
-1465.55
-7386.79
-4766.35
-655.565
-1731.08
-7411.63
-4924.73
712.285
815.994
-150.934
8.93881
2968.62
2987.05
263.41
445.085
687.081
2054.64
-1553.16
-875.455
10258.7
9702.58
5579.66
4327.58
544.071
10604.5
10782.4
4301.15
6371.61
953.253
-10421.6
-8094.22
-7069.29
-6520.51
-3810.75
808.273
730.429
61.2737
-24.0093
2561.71
2449.91
195.844
-17.1333
2591.05
3043.37
-542.815
-800.5
5122.45
2235.27
8070.98
4951.95
3603.19
2674.82
4093.45
3483.9
-262.791
-1117.37
-3825.6
-2406.46
-1058.29
973.735
-947.178
765.45
-1545.4
-247.111
-1820.03
-2052.65
-5184.69
-4705.85
-9872.91
-5930.9
-8162.72
-8150.23
-12380.4
-9991.52
-7655.86
-4448.53
-3781.38
-3722.15
-11646.7
-5114.32
-12808.1
-5735.48
-13809
-10199.2
-14734.7
-10946.9
-9313.15
-3604.08
-10434.4
-4185.39
-5869.63
-4552.52
-4322.29
-6378.84
-3742.91
-4168.21
-3672.01
-5909.86
-6798.66
-4477.81
-4893.93
-7331.95
-8313
-4865.04
-6220.11
-7564.25
717.267
748.293
833.52
39.9698
263.96
292.553
2604.62
2708.02
2683.71
242.735
754.84
750.032
3321.35
3618.97
3675.48
-463.742
739.969
983.127
1145.78
966.209
663.351
3528.14
3564.3
3297.17
2873.6
3193.22
3118.12
3564.6
3748.11
3623.44
-1134.99
338.084
442.382
-3503.66
-2009.73
-1089.31
883.077
1910.56
2456.46
884.292
2172.18
2728.42
422.133
1796.71
2187.05
-2014.38
463.346
752.008
30.3836
35.6212
41.8043
61.9569
255.57
138.371
111.278
102.867
20.1128
69.277
156.711
231.561
416.79
252.875
279.385
284.973
-193.852
25.2107
226.214
417.602
159.811
202.413
249.913
273.394
34.9065
119.22
113.392
107.781
-200.512
-10.4819
101.034
166.116
-869.12
-183.232
63.994
235.322
-1351.29
-317.098
-24.6164
415.326
-590.742
-76.05
143.855
364.629
-1104.38
-239.782
-40.621
358.827
-932.244
-219.365
93.1584
308.646
-1519.51
-377.934
-28.3699
491.013
-1042.53
-287.766
88.4133
373.046
-1639.21
-432.321
-47.8457
512.957
13.7204
21.4382
37.2533
79.0158
42.4863
30.3157
20.8332
71.7518
82.6368
73.9845
119.445
216.389
173.624
102.529
67.6914
195.134
-352.849
-44.9072
124.265
365.447
-141.621
29.8434
85.0186
343.569
-42.8474
112.154
192.398
369.594
11.2039
92.138
70.5694
346.159
-939.92
-181.462
-3.81357
480.696
84.7058
42.4455
28.3018
55.8256
154.222
61.6926
31.0318
26.6539
177.632
101.295
59.5201
141.928
395.516
164.401
77.1965
68.0953
118.627
113.461
81.0683
232.506
505.873
231.577
116.25
106.891
-55.8071
104.089
101.765
323.977
410.245
250.713
137.191
134.837
-470.351
16.3652
37.3207
304.043
143.362
215.99
122.64
135.833
-1090.1
-113.599
17.9643
348.159
-340.156
51.5588
71.975
122.257
-829.803
-31.2304
29.0039
323.479
-184.153
125.474
101.006
134.78
-1327.42
-211.538
-12.5169
378.309
-477.143
-19.0166
44.743
113.737
-1504.43
-306.422
-53.6726
372.438
-600.327
-92.9202
9.45374
97.7972
27.1928
11.5169
5.61745
3.10848
2.12946
35.6861
17.4398
9.08609
5.15602
3.56238
64.8712
26.6373
12.8966
7.13277
4.88835
80.1648
38.7592
20.1755
11.4691
7.93412
86.034
33.2858
15.8801
8.7577
5.99984
107.023
50.9969
26.5183
15.092
10.4481
55.6488
25.9591
13.432
7.64919
5.30136
39.996
15.373
7.24044
3.98951
2.73902
85.3514
33.6814
16.327
9.08033
6.24176
40.9716
13.9382
6.37861
3.48277
2.38036
90.0512
38.9434
19.746
11.1481
7.69676
38.7976
13.8692
6.5475
3.60892
2.47369
65.9966
22.1715
9.94427
5.38666
3.67599
38.794
12.3797
5.52623
3.00058
2.05033
58.1409
14.5996
5.2698
2.59031
1.71335
32.1844
6.97114
2.31035
1.09659
0.717489
22.8851
8.84507
4.18958
2.29413
1.56575
16.6353
7.03029
3.48283
1.93699
1.32784
55.9789
22.068
10.6763
5.90754
4.04908
43.0111
18.4391
9.27251
5.19437
3.57263
78.5281
27.3317
12.709
6.95213
4.75185
58.3846
25.3517
12.9032
7.26882
5.01278
69.7707
30.2263
15.4709
8.74404
6.03512
39.6428
19.1369
10.0544
5.72145
3.95826
35.8214
16.3838
8.5432
4.85048
3.35211
-286.435
-429.835
-609.315
-1040.01
-550.984
-1277.18
45.8184
-971.524
724.048
34.5407
-631.266
-1163.37
452.088
362.09
-1128.09
-1835.48
-1477.17
-2129.5
-674.894
-157.812
-35.7124
-7.92097
-1.99567
-210.506
-99.501
-13.8795
-3.73844
-1.66128
-2072.06
-482.086
-109.466
-24.1587
-6.09496
-497.061
-137.037
-33.7553
-7.14243
-1.9468
-3471.68
-809.245
-184.251
-40.801
-10.2719
-795.808
-233.984
-57.3211
-13.4045
-3.39088
-4636.77
-1083.89
-247.817
-55.0515
-13.8782
-923.724
-294.175
-74.3863
-17.583
-4.43558
-5759.45
-1359.62
-313.054
-69.9047
-17.6994
-1019.03
-357.776
-93.1076
-22.2851
-5.68689
-6754.16
-1643.14
-383.649
-86.424
-21.9899
-1626.11
-503.143
-125.134
-28.9228
-7.28996
-6315.94
-1531.73
-356.069
-79.8684
-20.2538
-1240.63
-422.933
-108.724
-25.6717
-6.48293
-6945.95
-1691.66
-395.693
-89.2806
-22.7539
-1856.71
-554.124
-135.625
-30.8895
-7.76267
-7227.4
-1744.89
-408.657
-92.1603
-23.4744
-1932.35
-577.911
-142.637
-30.1883
-8.02295
-521.242
-7153.29
-6528.16
-2321.49
1687.42
2864.83
7966.7
11650.7
1795.55
8555.09
-1735.52
2586.29
2523.13
5032.3
9550.91
13533.3
14437
18137.8
5897.9
7641.42
-19987.5
-14388.1
-4518.49
-3453.91
-2470.93
-3503.57
-3328.34
-12193.6
-11425.9
-9832.72
-10455
-8506.58
-6127.16
-8079.55
-5248.91
-4448.55
-5365.95
-3683.34
-19800.2
-10156.7
-3488.78
-5987.35
-8266.31
-5725.36
-6178.38
-4572.02
-2731.89
-3853.32
-4151.78
-4501.15
-19632.9
-12796.7
-12118.7
-8710.37
-8578.75
-9080.69
-3768.57
-4934.42
-6389.46
-14069.5
-11994.5
-9883.17
-8905.22
-7433.65
-9289.92
-6312.23
-4814.93
-3607.14
-1809.37
-3974.34
-3279.95
-2444.79
-1515.92
-516.907
-3076.7
-2567.41
-1925.06
-1192.56
-404.322
-2189.25
-1814.31
-1350.14
-830.95
-280.59
-3126.38
-2611.49
-1957.3
-1210.42
-409.546
-2945.67
-2440.48
-1818.18
-1121.62
-379.627
-7748.82
-5840.66
-4483.62
-4042.65
-4237.39
-6177.17
-4473.69
-3125.81
-2540.58
-1745.27
-6126.61
-3676.48
-2515.62
-1715.26
-805.123
-5343.02
-3561.03
-2334.62
-1665.15
-964.016
-3962.18
-2456.88
-1513.16
-1027.65
-495.073
-4830.69
-3589.49
-2463.3
-1462.05
-500.103
-5494.97
-3531.59
-2297.27
-1363.05
-503.445
-3444.32
-2066.49
-1239.05
-669.647
-224.674
-3653
-2806.78
-1965.62
-1169.66
-393.115
-4270.41
-3175.98
-2156.03
-1250.72
-414.109
-3058.26
-2370.49
-1666.24
-988.708
-329.519
-12964.7
-9742.96
-7715.09
-6677
-6163.81
-7434.98
-5348.63
-3866.51
-2581.44
-1138.72
-2891.37
-2250.36
-1601.72
-970.714
-332.872
-5046.78
-4007.26
-2913.18
-1800.35
-627.98
-6735.67
-5247.55
-3823.45
-2432.53
-910.626
-4846.79
-3877.86
-2849.91
-1783.09
-628.425
-5321.4
-4318.69
-3196.28
-1993.75
-692.457
-3961.63
-3221.01
-2373.94
-1465.19
-500.782
-2348.24
-1884.49
-1364
-824.848
-276.84
-3382.22
-2776.61
-2051.36
-1258.26
-424.934
-3518.8
-2790.48
-2007.26
-1215.53
-411.223
-3882.64
-3138.54
-2298.03
-1409.74
-479.909
-13499.8
-11017.3
-9020.4
-7826.2
-6605.69
-8824.87
-6264.68
-4747.04
-3444.27
-1714.73
-8860.9
-6942.07
-5199.58
-3761.5
-1789.54
-6805.67
-5119.76
-3804.15
-2548.93
-1023.94
-7112.59
-5642.15
-4171.8
-2677.13
-995.77
-7039.23
-5256.88
-3881.38
-2588.76
-1027
-3218.25
-2585.69
-1895.51
-1174.5
-406.806
-4333.25
-3564.13
-2643.24
-1629.47
-552.671
-5472.14
-4411.45
-3245.01
-2015.16
-697.67
-5793.6
-11818.4
-12271.4
-33702.6
-12057.8
-44987.1
-6594.18
-16021.7
-12068.1
-9298.3
-20114.9
-16739.2
-11989.8
-11225.1
-22505.3
-17748.2
-4270.68
-3178.81
-8286.71
-5708.56
-9564.2
-7212.1
-25730.3
-19050
-15739.7
-11907.8
-16193.3
-9612.14
-1215.39
-3901.84
-41887.2
-54767.9
-25288.5
-31970.5
-55235.8
-70891
-27133.4
-31944.9
-31264.8
-43082
-25464.9
-34737.7
-16964.1
-25536.8
-2049.78
-541.828
-3607.86
-1232.15
-6971
-3122.72
-14159.2
-5119.83
-3055.61
-1741.85
-7652.31
-2409.93
-15835.2
-4980.76
-20576.5
-6940.12
-16939.1
-8804.22
-19591.7
-11626.7
-15337.5
-10991.3
-17294.5
-13354.2
-15726.3
-9204.32
-12422.2
-6448.57
-22202.6
-14102.2
-23146.9
-14816.4
-20282.4
-15296
-21432.8
-15954.3
-18521.9
-11592.4
-19817.1
-12364.1
-17283.2
-7663.76
-7551.25
-10016.5
-15456.1
-7845.34
-5680.92
-9876.76
-19119
-7841.21
-9168.52
-10263.8
-20320.7
-8097.33
-10315.8
-10849.2
-1177.64
-1066.65
-289.013
-1286.9
-4787.13
-4971.94
-3018.1
-6031.21
-2718.42
-3388.08
-4715.06
-8933.74
-12267.6
-9699.56
-9629.85
-12107.6
-8067.95
-7606.56
-8226.02
-7164.31
-14044.4
-12408.6
-11826
-10018.5
-7054.72
-6123.49
-13426.9
-1154.53
-864.595
-650.104
-730.405
-4460.07
-3530.77
-3803.01
-3353.41
-684.432
490.035
-4505.5
-3542.55
-10184.5
-10815.3
-9548.4
-8753.59
-7257.21
-5270.77
-9546.8
-7587.59
-8705.89
-6818.49
-11692.9
-11807.8
-10076
-7762.1
-7520.41
-5012.65
-6699.15
-4166.83
-10128.7
-6117.21
-9414.94
-4987.32
-8417.45
-9520.35
-13171.5
-17448.8
-13903.2
-20280.5
-6506.86
-7657.87
-7866.59
-2776.36
-7782.82
-15177.7
-7538.94
-16392.9
-13763.8
-25169.1
-14073.3
-26624.7
-5832.03
-13071
-5487.77
-14077.5
-7980.27
-6191.74
-11645.3
-4650.12
-7639.51
-1698.25
-10010.5
-1141.14
-7952.86
-9421.55
-12317.1
-5690.05
-6705.55
-11212.5
-10970.6
-7478.98
-846.546
-785.038
-585.521
-675.593
-2689.61
-1969.49
-2457.51
-2238.05
1065.65
547.403
-2875.79
-3178.39
-10680.8
-10082.8
-7777.66
-6658.07
-4195.36
-3504.8
-5959.61
-4897.67
-5738.87
-4176.35
-18332.8
-15931.9
-8083.73
-6782.93
-6227.72
-4648.39
-5214.48
-3273.3
-5635.5
-2380.8
-5629.07
-9269.21
-4915.93
-9433.59
-8494.15
-10568.3
-9567.2
-13020.9
-976.702
-691.481
-737.567
-616.334
-3618.06
-2536.53
-2931.94
-1585.89
-1291.46
-1589.39
-8328.31
-8921.34
-4634.59
-4169.62
-9470.41
-9855.51
-14724.5
-16965.4
441.972
4058.04
-7364.61
-7176.89
-7135.44
-5637.05
-1040.74
-930.73
-1132.26
-925.305
-1649.5
-1063.76
-506.417
-404.953
-8049.7
-3608.95
-6839.98
-3013.49
-9326.08
-3598.3
-11134
-3861.48
-5355.34
-10256.6
-7008.07
-10748.3
-8776.48
-11824.2
-11593.6
-12824.3
-5150.69
-9090.32
-4633.11
-9047.78
-8231.63
-10850.4
-9500.32
-11241.5
-13449.1
-13481.6
-14794.2
-14020.9
-5541.81
-8938.8
-6151.59
-9163.7
-275.786
-1955.11
-7603.53
-4972.68
-252.653
-2021.5
-7533.19
-4759.25
-601.978
-1996.05
-7588.75
-5134.29
-816.272
-1944.05
-7471.18
-5050.76
-1038.31
-1129.49
-962.001
-1025.96
-1993.79
-2021.06
-1309.89
-1397.88
-8232.56
-7508.2
-3670.06
-3647.18
-3624.38
-5122.26
-3909.16
-79.794
-1577.93
-1195.69
-1314.96
-3548.06
2778.1
-630.743
-13986.1
-11734.3
-10435.5
-8908.52
-5343.63
-1128.18
-1004
-1147.18
-1401.45
-1987.67
-1548.58
-1791.48
-2368.99
-7794.02
-7612.55
-4033.03
-5160.55
-4987.07
-6673.22
-3072.47
-5001.53
-4707.85
-5123.21
-965.758
-1351.95
-2550.87
-3845.95
-9684.21
-7906.42
-7524.57
-5488.01
-6441.27
-4565.14
-5559.88
-3980.25
-3873.05
-4211.69
-8191.27
-8054.35
-11080.8
-7118.88
-10406.3
-11114.9
-13055
-10959.4
-9119.54
-5589.89
-6665.05
-6616.14
-12105.9
-5846.08
-12923.6
-5910.22
-13973.4
-10817.5
-14762
-11076.4
-9975.31
-4314.06
-10618.4
-4371.86
-7253.4
-5572.68
-5530.75
-7509.27
-6171.1
-6474.51
-5441.67
-7784.48
-7513.51
-5140.34
-5574.08
-8046.83
-8534.48
-5071.11
-6438.97
-7766.85
-794.437
-688.329
-1008.16
-754.852
-1335.86
-1606.24
-1457.8
-1100.94
-7385.2
-6468.67
-3417.46
-1540.1
-7823.85
-7396.12
-6021.21
-5398.21
-4950.13
-4253.86
-1713.96
-1797.28
-3661.96
-1687.81
-8604.54
-7347.08
-4814.14
-3854.91
-3668.09
-2398.31
-2613.62
-1232.88
-3788.64
-93.44
-208.348
-93.6454
-32.467
18.3306
-188.889
-114.962
-34.5105
16.1334
-565.044
-245.299
-4.79284
145.936
-496.569
-279.384
-18.5043
107.961
-932.421
-366.695
33.924
335.2
-906.489
-432.077
-135.938
21.2536
-628.947
-292.056
-141.346
-44.598
-489.964
-196.092
-14.5417
94.8669
-1407.07
-487.982
-126.748
103.666
-1669.71
-474.741
-109.946
398.029
-1344.16
-465.384
-80.0688
219.048
-1513.67
-426.003
-135.288
357.042
-1320.47
-451.415
-44.7794
232.045
-1732.79
-490.493
-95.5731
466.188
-1201.12
-385.833
29.2555
339.307
-1716.9
-475.1
-73.7501
503.547
-194.619
-77.6502
-12.304
57.8227
-167.232
-58.9653
-26.517
54.0984
-501.449
-202.236
-16.0323
152.985
-420.031
-154.459
-67.4714
141.008
-997.685
-343.69
-13.6687
322.799
-904.977
-297.644
-83.3513
290.937
-1105.58
-399.501
-70.8316
244.893
-834.342
-279.285
-108.289
323.87
-1522.15
-423.993
-119.561
508.739
-121.297
-43.9617
-13.1495
36.5376
-56.7996
-30.1967
-12.5293
0.704084
-365.076
-127.176
-57.259
85.0734
-186.345
-90.1091
-46.6058
-5.19884
-648.552
-212.22
-87.8585
152.743
-376.253
-158.217
-72.6161
-3.64441
-986.416
-305.911
-110.15
233.079
-655.023
-233.661
-96.6597
0.520947
-1299.01
-368.78
-179.9
191.788
-879.64
-282.223
-131.428
-16.9674
-1732.8
-478.434
-194.387
237.846
-869.242
-263.775
-109.981
8.12767
-1669.79
-467.893
-219.019
195.038
-961.848
-292.902
-127.21
-8.60392
-1713.14
-442.294
-149.733
308.96
-780.217
-214.407
-69.7736
44.8831
-1630.14
-383.889
-100.3
348.815
-694.36
-155.958
-27.9781
75.454
-3.02541
-6.58708
-4.60247
-2.87691
-2.05548
-18.4877
-13.456
-8.1304
-4.89498
-3.46062
-5.29968
-15.1819
-10.6604
-6.65609
-4.752
-40.3757
-30.0472
-18.197
-10.9438
-7.73065
0.0219382
-18.2434
-13.1258
-8.21634
-5.86717
-53.5719
-39.9513
-24.092
-14.4556
-10.2024
-26.4558
-20.2161
-12.2476
-7.34859
-5.18355
-2.01311
-8.30634
-5.94624
-3.7183
-2.65171
-9.59278
-20.4362
-13.8415
-8.54087
-6.07473
5.45004
-6.62577
-5.12045
-3.2394
-2.31954
-30.9893
-28.7431
-17.7259
-10.691
-7.55804
0.940174
-7.73998
-5.47972
-3.41025
-2.4309
11.2892
-9.37256
-7.70626
-4.93727
-3.54386
7.88501
-5.30969
-4.33868
-2.76478
-1.98143
33.2623
0.215175
-2.79008
-2.12736
-1.58613
21.8983
0.987985
-1.04192
-0.865167
-0.654103
1.3739
-4.43648
-3.32465
-2.10505
-1.50908
-3.48938
-4.52344
-2.92728
-1.79477
-1.27637
-2.93856
-12.9448
-8.92177
-5.53376
-3.94272
-13.2084
-13.0976
-8.11581
-4.91328
-3.47897
11.6121
-13.5848
-10.2981
-6.49589
-4.64535
-22.7869
-19.3371
-11.6356
-6.98658
-4.93278
-28.6178
-23.8134
-14.2465
-8.53869
-6.02915
-27.3716
-16.5757
-9.42859
-5.58258
-3.92682
-21.1723
-14.0875
-8.13484
-4.84062
-3.41207
-43.8572
-199.978
-55.7517
-505.76
40.6563
-689.537
373.246
-597.334
668.68
-1.50931
-733.985
-1263.89
233.555
39.7475
-1174.44
-1869.22
-1489.22
-2136.68
-636.523
-151.198
-34.3962
-7.6469
-1.92902
-165.095
-92.0006
-12.8179
-3.55589
-1.60644
-1966.37
-463.135
-105.624
-23.356
-5.89873
-394.295
-121.541
-31.3744
-6.79378
-1.88284
-3310.94
-779.289
-178.104
-39.511
-9.95752
-684.553
-216.254
-54.4664
-12.9299
-3.30127
-4455.08
-1048.01
-240.281
-53.4553
-13.4886
-860.357
-282.326
-72.2226
-17.1783
-4.35379
-5598.55
-1323.95
-305.157
-68.1895
-17.2758
-1028.43
-354.978
-92.0727
-22.0172
-5.62237
-6685.53
-1623.55
-378.735
-85.2805
-21.6957
-1644.55
-504.981
-125.174
-28.8762
-7.27035
-6211.5
-1503.33
-349.269
-78.3374
-19.8697
-1280.39
-425.497
-108.597
-25.5598
-6.44862
-6907.57
-1680.48
-392.802
-88.5924
-22.5735
-1861.65
-554.463
-135.565
-30.8566
-7.7514
-7214.87
-1741.24
-407.698
-91.9286
-23.4133
-1932.7
-577.796
-142.581
-30.1778
-8.01904
-510.739
-7056.56
-6217.04
-2206.77
-1585.56
-915.533
-3718.02
-2664.49
-6559.29
-6121.47
-3134.94
-2349.08
-337.167
-522.195
-905.379
-1484.69
-2248.33
-3135.02
-245.216
-532.836
-1116.52
-1960.88
-2983.72
-4050.13
-255.288
-117.609
-442.7
-301.953
-822.611
-679.713
-1386.62
-1282.36
-2014.58
-1928.55
-2674.56
-2400.04
-3932.31
-4495.61
-4949.22
-7481.23
-8463.79
-9378.17
-4968.11
-5521.75
-5548.07
-5110.79
-4418.99
-3895.31
-304.397
-257.667
-195.533
-121.986
-41.4466
-471.076
-398.393
-302.05
-188.307
-63.9569
-815.989
-689.347
-522.11
-325.258
-110.43
-1336.36
-1127.31
-852.69
-530.716
-180.11
-2019.69
-1700.08
-1283.55
-797.979
-270.693
-2807.02
-2354.9
-1773.3
-1101.01
-373.402
-221.286
-187.216
-141.996
-88.5512
-30.0803
-480.398
-406.005
-307.626
-191.695
-65.0923
-1005.71
-849.09
-642.741
-400.261
-135.872
-1763.87
-1486.97
-1124.15
-699.479
-237.364
-2678.43
-2253.08
-1700.33
-1056.95
-358.558
-3624.62
-3039.66
-2288.72
-1421.28
-482.136
-230.535
-195.205
-148.178
-92.4635
-31.4195
-106.214
-89.9448
-68.2816
-42.6102
-14.4795
-399.522
-338.035
-256.401
-159.899
-54.3168
-272.565
-230.678
-175.014
-109.164
-37.0856
-741.793
-627.049
-475.19
-296.142
-100.562
-613.118
-518.451
-393.012
-244.978
-83.1965
-1248.85
-1054.18
-797.802
-496.711
-168.589
-1155.19
-975.305
-738.201
-459.617
-155.996
-1810.91
-1525.29
-1152.05
-716.294
-242.967
-1733.81
-1460.41
-1102.9
-685.552
-232.486
-2395.58
-2010
-1513.2
-938.986
-318.28
-2149.83
-1803.36
-1356.69
-841.051
-284.86
-3501.83
-2922.69
-2193.33
-1360.57
-461.818
-3965.63
-3282.87
-2453.23
-1523.15
-519.282
-4290.86
-3505.61
-2607.79
-1629.37
-563.899
-6274.22
-5021.58
-3731.84
-2386.06
-867.938
-6698.4
-5205.42
-3887.82
-2603.71
-1056.37
-7102.14
-5410.29
-4059.86
-2815.01
-1232.63
-4426.18
-3696.19
-2775.49
-1722.53
-584.77
-4886.56
-4057
-3037.24
-1885.97
-641.979
-4859.03
-4001.29
-2986.38
-1860.2
-637.808
-4396.8
-3576.18
-2662.64
-1674.38
-585.338
-3671.87
-2924.42
-2176.52
-1401.89
-515.547
-3117.16
-2428.95
-1809.1
-1197.71
-465.867
-353.613
-573.594
-997.526
-1626.3
-2450.93
-3392.62
-267.814
-603.457
-1241.97
-2146.61
-3223.54
-4314.26
-270.636
-130.315
-491.376
-343.527
-912.149
-760.53
-1529.69
-1419.14
-2233.36
-2179.17
-2969.32
-2791.25
-4211.25
-4765.52
-5204.98
-7648.92
-8542.05
-9402.36
-5204.82
-5677.59
-5598.28
-5068.59
-4341.21
-3858.08
-319.34
-270.418
-205.291
-128.116
-43.5375
-517.81
-438.303
-332.62
-207.525
-70.5145
-899.889
-761.121
-577.187
-359.934
-122.272
-1465.61
-1238.19
-938.034
-584.582
-198.532
-2205.22
-1859.91
-1407.1
-876.23
-297.508
-3044.35
-2560.84
-1933.67
-1203.21
-408.547
-241.813
-204.726
-155.392
-96.964
-32.9493
-544.601
-460.824
-349.609
-218.084
-74.096
-1119.94
-946.813
-717.734
-447.479
-151.998
-1933.41
-1632.45
-1236.14
-770.177
-261.546
-2898.15
-2442.46
-1846.8
-1149.77
-390.376
-3868.06
-3251
-2453.39
-1526.27
-518.256
-244.472
-207.087
-157.263
-98.1664
-33.3638
-117.743
-99.7651
-75.783
-47.3153
-16.0828
-443.75
-375.774
-285.283
-178.043
-60.5053
-310.319
-262.87
-199.632
-124.619
-42.3554
-823.27
-696.699
-528.596
-329.745
-112.034
-686.643
-581.286
-441.178
-275.277
-93.5387
-1379.4
-1166.15
-883.955
-551.072
-187.177
-1280.12
-1082.59
-820.852
-511.822
-173.857
-2011.14
-1697.67
-1285.19
-800.569
-271.835
-1963.22
-1657.94
-1255.5
-782.164
-265.584
-2667.08
-2245.47
-1696.46
-1055.7
-358.397
-2509.27
-2114.21
-1597.91
-994.315
-337.471
-3761.61
-3150.92
-2373.29
-1476.43
-501.915
-4221.86
-3512.66
-2638.1
-1644.22
-561.662
-4541.33
-3737.18
-2799.49
-1758.08
-609.883
-6460.18
-5210.95
-3902.45
-2509.81
-915.716
-6805.76
-5325.31
-4004.65
-2696.41
-1097.06
-7140.89
-5455.28
-4105.35
-2852.83
-1250.19
-4646.78
-3890.18
-2928.63
-1821.23
-618.953
-5035.74
-4192.09
-3146.98
-1958.4
-667.443
-4913.79
-4057.18
-3036.65
-1896.09
-651.089
-4368.48
-3561.54
-2659.4
-1677.31
-587.803
-3610.05
-2879.14
-2148.36
-1388.92
-512.981
-3086.99
-2406.04
-1794.12
-1190.34
-464.243
-19934.2
-14444.1
-4895.19
-3849.83
-2945.43
-4083.41
-3815.87
-13021.1
-14544.7
-11482
-13239.6
-7724.08
-11132.9
-5873.26
-6145.12
-4459.04
-20528.8
-11209.1
-4235.4
-6929.33
-9146.77
-6250.83
-6843.77
-5168.3
-3166.34
-4538.37
-5123.19
-5239.02
-19534.5
-12996.6
-12789.4
-9110.53
-9042.1
-9630.44
-4453.53
-5586.84
-7046.04
-14087.4
-12068.5
-9993.62
-9053.18
-7570.91
-9381.49
-6406.39
-4905.54
-3682.11
-1841.82
-4333.82
-3604.02
-2706.64
-1687.91
-577.22
-3444.57
-2889.68
-2178.36
-1355.18
-460.49
-2632.86
-2205.55
-1659.6
-1030.53
-349.686
-3662.89
-3079.33
-2323.37
-1444.55
-490.222
-3403.72
-2846.51
-2140.73
-1330.3
-451.995
-9444.15
-7770.28
-6310.42
-5559.47
-5325.79
-10730
-9158.79
-7323.49
-5752.92
-3333.22
-8238.09
-5767.89
-4301.19
-2952.16
-1255.28
-9759.84
-7985.93
-6194.45
-4482.65
-2127.7
-6509.36
-5198.75
-3816.29
-2371.54
-822.539
-8704.66
-6468.68
-4694.45
-2956.18
-1071.86
-5073.39
-4124.86
-3049.21
-1888.4
-646.374
-5287.27
-4284.9
-3161.68
-1957.78
-670.838
-3886.45
-3181.44
-2358.34
-1458.22
-496.604
-14322.8
-11332.2
-9275.72
-8006.64
-7087.18
-8672.85
-6603.83
-4971.18
-3367.84
-1450.25
-3649.18
-2966.12
-2199.17
-1371.29
-475.068
-5990.78
-4893.58
-3652.1
-2297.14
-805.578
-7678.05
-6173.95
-4624.47
-2990.25
-1119.57
-5382.55
-4389.13
-3282.95
-2078.72
-735.685
-5968.76
-4912.78
-3684.06
-2318.75
-807.951
-4541.22
-3752.31
-2808.89
-1753.44
-602.413
-2791.57
-2308.37
-1721.91
-1066.35
-362.516
-4033.95
-3361.96
-2522.02
-1565.63
-532.135
-4475.59
-3674.61
-2733.55
-1697.01
-580.731
-4602.65
-3800.27
-2840.28
-1768.92
-606.402
-13637.6
-11300.4
-9392.06
-8246.45
-7021.72
-9110.51
-6560.35
-5026.06
-3666.61
-1814.13
-9783.95
-7909.77
-6104.58
-4461.69
-2105.02
-7263.42
-5587.85
-4225.51
-2857.55
-1143.35
-7618.12
-6149.77
-4620.88
-2997.22
-1118.36
-7675.18
-5895.31
-4454.49
-3005.53
-1190.96
-3881.73
-3191.33
-2389.55
-1501.38
-522.227
-4954.3
-4122.28
-3092.4
-1923.09
-655.166
-6126.72
-5025.25
-3757.46
-2360.41
-821.071
-457.273
-1310.67
-2101.31
-2860.67
-3589.32
-4274.19
-2717.87
-7289.63
-6892.26
-2647.6
-9242.43
-7763.2
-9191.54
-10158.1
-2471.4
-1593.25
-5742.51
-3292.82
-10860.5
-7747.15
278.189
-2199.64
-6060.2
-5644.6
-2125.18
-7839.4
-6303.27
-7681
-8620.7
-2044.45
-931.157
-4937.1
-1692.99
-8953.35
-4631.51
1674.08
-1598.8
-4584.78
-4251.16
-1546.95
-6160.12
-3735.53
-6189.59
-6817.92
-1535.82
-849.306
-3481
-1769.6
-7099.06
-1780.34
1817.2
-1168.35
-3524.3
-3329.11
-1170.32
-4677.92
-2229.96
-5102.54
-5969.2
-1149.01
-896.005
-2536.84
-1797.73
-6208.64
-313.094
1367.54
-937.432
-2969.89
-2848.04
-979.448
-3727.91
-1832.45
-4548.06
-5769.33
-903.398
-980.871
-1809.33
-1733.3
-5396.58
-99.3147
174.604
-823.641
-2635.01
-2603.33
-882.709
-3436.82
-2107.88
-4194.32
-5504.2
-692.535
-769.747
-1480.03
-1693.5
-5313.39
-951.556
-483.54
-1396.19
-3407.42
-5045.53
-1954.13
-5514.42
-9660.43
-7377.35
-10618.4
-998.546
-691.958
-3866.62
-2343.95
-1105.27
-9181.59
-4765.01
-1297.66
-3173.63
-4426.27
-1695.37
-5091.78
-8721.14
-6648.4
-9022.67
-1019.88
-607.244
-3997.66
-2207.39
-285.42
-8994.68
-3553.38
-1138.82
-2794.88
-3616.06
-1358.21
-4628.42
-7776.56
-5643.62
-7912.93
-902.181
-696.813
-3406.4
-2292.17
-515.579
-7239.26
-3380.6
-981.943
-2514.7
-2990.18
-1099.03
-4309.78
-7036.52
-5009.72
-7162.84
-824.968
-699.641
-3138.44
-2370.01
-343.653
-6692.26
-3386.77
-885.598
-2259.5
-2648.01
-958.492
-3904.57
-6439.72
-4559.87
-6793.99
-770.552
-753.595
-2843.42
-2560.19
-501.913
-6404.75
-3441.38
-821.411
-2014.8
-2451.3
-880.174
-3600.87
-6352
-4228
-6564.08
-799.913
-877.656
-2531.21
-2438.04
-762.37
-6548.71
-3813.52
6237.63
7876.19
16296
23847.8
24288.9
41839.9
18620.7
47402.6
15158.8
33284.1
22697.7
34472.9
20323.3
26745.1
7683.6
8720.32
15373.9
17612.1
19798.8
19636.4
15556.7
19193.8
22904.8
20531.6
5164.44
3938.14
6333.07
4291.47
12994.6
10406.7
22199.7
16113.4
17119
17847.1
19076.2
18297.9
6767.85
5239.74
40490.3
54197
26169.1
32120.6
54340.6
70524.9
28103.4
32179.2
30073.7
42470.9
26268
34794.7
15415
24800.5
2813.65
966.774
2882.22
1052.77
8967.2
3625.54
12313.4
4540.34
8798.2
3366.56
9284.93
2981.28
15814.9
5038.62
20393.4
6890.3
24754.1
12335.2
22660.9
13426.3
23123.6
14963.1
20343.5
15251.3
17892.4
10641.5
17919.6
9174.37
23387
14909.9
23442.6
15036.4
21496.3
16119.2
21757.2
16177.1
19317
12254.3
20005
12546.3
18317.9
7970.35
8501.61
10406.4
18392.3
8729.14
7451.59
10595.2
19392.6
7919.43
9610.71
10453.8
20352.6
8104.57
10440.1
10904.2
3630.64
3927.72
1252.16
2427.76
11223.8
11887.5
4366.49
7838.95
14436.9
16001.5
7057.81
12046.1
12301.8
898.746
13841.4
17260.5
9475.17
551.538
7338.39
12541
20301.9
14410
10207
12472
11010.3
9597.18
15102.2
3356.66
2716.93
1903.85
1909.87
10368.5
8665.77
6355.91
6011.57
12861.8
10751.3
8219.79
7349.67
5787.65
7418.18
12031
12522.6
14337.6
13026.3
16191.4
14016.7
11168
9408.08
9180.45
9538.95
12155.2
9403.29
11140.5
7932.65
9710.84
6548.58
11463
7451.17
10361.2
4607.3
8945.48
9571.55
12700.7
16422.3
13991.3
20274
7153.66
7828.34
9204.24
2674.8
7991.81
15296.6
7592.15
16442.1
13862.8
25056.2
14108.6
26639.4
6088.29
13215.2
5551.99
14124.7
8443.81
6269.42
11823.7
4591.02
8610.53
1434.4
10265.7
519.657
8142.51
9503.57
12400
5686.73
6757.78
11242.2
10994.9
7487.55
2097.98
1848.74
1651.47
1555.55
1425.95
1271.83
6998.6
5629.43
4790.91
4554.18
3580.17
3049.13
8437.65
7162.09
6563.11
5426.73
4334.23
4053.77
6434.8
5580.66
5402.58
10845.4
8053.27
6698.65
10349.3
7466.84
5958.85
10836.5
8382.54
7209
6919.76
4455.6
3419.46
15595.1
13242.9
11296.8
10139.8
8269.05
6726.11
9140.08
6938.76
5401.59
7784.47
5486.48
4095.75
8186.13
4476.1
2444.97
10524.4
14234.4
8348.99
10767.7
11444.7
16771.4
10249.1
14870.9
63.8333
620.687
-434.906
59.4588
2967.19
3404.12
1240.48
743.783
674.842
2376.91
9466.42
13781.4
6643.76
3700.31
10074.4
10007.4
15630.1
17224.4
-623.359
-4219.31
7644.87
7200.61
7282.79
5613.9
888.01
486.472
572.916
244.106
2013.31
169.632
-297.503
-844.363
9235.18
2327.52
6289.98
1610.09
9124.28
2762.51
11047.5
3522.47
8943.65
11989.1
8254.68
11679.7
14494
15257.4
13814.7
14426.1
5632.74
9335.13
6516.4
9283.18
8756.87
11241.9
9655.84
11345.2
14391
14156.3
15063.3
14202.6
5685.08
9023.81
6183.71
9178.37
-255.089
1197.41
7228.29
4366.27
-806.937
789.602
6696.05
3848.35
207.586
1464.83
7384.63
4765.37
654.004
1730.57
7410.14
4923.98
-675.527
-768.816
137.614
-15.2326
-2943.68
-2961.17
-259.176
-434.93
-685.669
-2053.1
1552.8
875.31
-10258.6
-9701.74
-5579.94
-4327.73
-544.146
-10603.4
-10781.2
-4301.07
-6370.34
-953.104
10419.5
8091.09
7066.2
6518.05
3809.74
-772.09
-693.368
-78.2537
2.2328
-2534.07
-2426.63
-174.684
36.3314
-2589.45
-3041.09
542.689
800.101
-5122.23
-2235.28
-8070.67
-4951.88
-3603.47
-2674.88
-4092.88
-3483.11
262.592
1117.01
3824.62
2406.09
1056.89
-974.129
945.956
-765.741
1544.6
246.957
1819.53
2052.23
5182.5
4704.82
9870.61
5929.71
8160.98
8149.32
12378.5
9990.42
7653.75
4447.47
3779.45
3721.2
11644.9
5113.28
12806.6
5734.62
13807.4
10198.2
14733.4
10946.1
9311.4
3603.18
10433
4184.65
5868.06
4551.6
4321.36
6377.92
3741.46
4167.36
3671.15
5908.97
6797.33
4476.96
4893.06
7331.01
8311.86
4864.31
6219.32
7563.42
-683.043
-697.801
-775.849
-59.9371
-260.303
-284.036
-2580.85
-2694.76
-2674.48
-220.777
-742.939
-741.83
-3318.76
-3616.67
-3673.85
462.808
-739.545
-982.817
-1145.74
-966.097
-663.24
-3528.09
-3564.11
-3296.98
-2873.42
-3192.88
-3117.81
-3563.64
-3747.01
-3622.5
1134.47
-338.04
-442.236
3503.42
2009.79
1089.48
-883.225
-1910.42
-2456.23
-884.349
-2171.94
-2728.11
-422.065
-1796.36
-2186.66
2013.96
-463.362
-751.937
-25.5163
-31.4341
-37.4102
-55.5146
-238.048
-128.266
-103.124
-94.7723
-19.7137
-69.1226
-157.003
-232.594
-412.414
-251.248
-278.131
-284.11
193.938
-25.0975
-226.06
-417.389
-159.154
-202.118
-249.738
-273.241
-34.9118