/*--------------------------------*- C++ -*----------------------------------*\
| =========                 |                                                 |
| \\      /  F ield         | OpenFOAM: The Open Source CFD Toolbox           |
|  \\    /   O peration     | Version:  2306                                  |
|   \\  /    A nd           | Website:  www.openfoam.com                      |
|    \\/     M anipulation  |                                                 |
\*---------------------------------------------------------------------------*/
FoamFile
{
    version     2.0;
    format      ascii;
    arch        "LSB;label=32;scalar=64";
    class       volVectorField;
    location    "1.6";
    object      flux;
}
// * * * * * * * * * * * * * * * * * * * * * * * * * * * * * * * * * * * * * //

dimensions      [0 1 -1 1 0 0 0];

internalField   nonuniform List<vector> 
5712
(
(-0.277254 0.485225 0.304332)
(-0.354395 0.279878 0.998949)
(-0.656646 0.785062 0.242002)
(-0.960351 0.515692 1.02403)
(-0.980323 0.857736 0.181202)
(-1.69116 0.635897 1.05737)
(-0.751699 1.34302 0.284888)
(-1.91388 1.67037 1.62449)
(-0.611383 1.76765 0.349841)
(-1.34326 2.16883 2.23208)
(-0.914411 1.14475 0.347905)
(-1.39173 0.996328 1.62898)
(-0.819484 0.726754 0.336259)
(-1.07636 0.577305 1.35388)
(-0.360751 0.365405 0.349559)
(-0.412963 0.247356 1.21076)
(-0.621908 0.809462 0.211526)
(-0.71313 0.822676 0.132004)
(-0.800942 0.699626 0.565809)
(-0.794344 0.818996 0.337171)
(-0.628754 1.09345 0.206587)
(-0.775569 0.970271 0.11173)
(-0.925523 1.26717 0.616631)
(-0.829461 1.01951 0.306377)
(-0.22666 0.340913 0.232555)
(-0.171621 0.243803 0.170138)
(-0.281656 0.192141 0.744872)
(-0.190518 0.143113 0.528017)
(-0.526145 0.40637 0.175971)
(-0.423267 0.330124 0.128254)
(-0.896273 0.247788 0.732423)
(-0.651885 0.201215 0.535799)
(-0.693482 0.748224 0.413149)
(-0.722167 0.772338 0.175439)
(-0.77291 0.760053 0.357986)
(-0.742437 0.634241 0.160312)
(-0.275273 0.586298 0.165921)
(-0.21337 0.462743 0.387144)
(-1.63626 0.463787 1.41555)
(-2.19018 0.528041 0.382593)
(-1.058 0.746527 0.507693)
(-1.29844 0.744441 0.170068)
(-2.1942 1.57378 1.81776)
(-2.84809 1.62868 0.491895)
(-1.1351 1.10947 0.472943)
(-1.29973 1.14494 0.161232)
(-1.21621 0.640125 1.01452)
(-1.71747 0.539752 0.31415)
(-1.06298 0.693216 0.521243)
(-1.40753 0.493488 0.180911)
(-0.624109 0.322416 0.885262)
(-1.00366 0.332249 0.280878)
(-0.121169 0.267616 0.262962)
(-0.0409757 0.383655 0.130397)
(-0.12732 0.140277 0.375923)
(-0.0460198 0.171669 0.147356)
(-0.3654 0.366187 0.284856)
(-0.147943 0.512346 0.153742)
(-0.499386 0.21893 0.366063)
(-0.184333 0.258208 0.141468)
(-0.357901 0.403266 0.358265)
(-0.136887 0.692584 0.204803)
(-0.377033 0.280526 0.315584)
(-0.121169 0.465197 0.138174)
(-0.640764 0.106491 0.461318)
(-0.204269 0.27566 0.166605)
(-0.826062 0.0886764 0.158254)
(-0.279256 0.20527 0.0555054)
(-0.999882 0.722671 0.524939)
(-0.498978 0.894717 0.36714)
(-0.915404 0.75046 0.32237)
(-0.542336 0.893853 0.237254)
(-0.932929 0.882219 0.576504)
(-0.603862 0.889016 0.475373)
(-0.82087 0.903258 0.313948)
(-0.614753 0.880637 0.271729)
(-0.723941 0.64176 0.309248)
(-0.430756 0.872174 0.21184)
(-0.725325 0.655503 0.44145)
(-0.372014 0.859564 0.299773)
(-0.944788 0.74135 0.210783)
(-0.601772 0.889411 0.155637)
(-0.94709 0.742302 0.105054)
(-0.606712 0.888304 0.0864922)
(-0.867437 0.913607 0.200862)
(-0.64933 0.871213 0.173493)
(-0.87795 0.912023 0.101509)
(-0.651448 0.8639 0.0983383)
(-0.781361 0.594408 0.204573)
(-0.495519 0.876834 0.135689)
(-0.809122 0.574653 0.103174)
(-0.507189 0.880569 0.0667142)
(-0.741753 0.734333 0.279001)
(-0.32328 0.870671 0.152484)
(-0.34483 0.927079 0.211857)
(-0.422755 1.30616 0.253069)
(-0.74467 0.778305 0.386101)
(-0.354255 1.01026 0.275201)
(-0.302719 0.919336 0.310227)
(-0.431095 1.42479 0.43586)
(-0.785015 0.696007 0.182879)
(-0.320969 0.764185 0.0871914)
(-0.389424 0.930267 0.124001)
(-0.424278 1.25275 0.144035)
(-0.823816 0.688723 0.0896166)
(-0.328378 0.714128 0.0375662)
(-0.422831 0.94021 0.0528322)
(-0.442338 1.24205 0.0531169)
(-0.156882 0.228598 0.353674)
(-0.171723 0.301867 0.632546)
(-0.0530509 0.585441 0.238598)
(-0.105553 1.03323 0.704529)
(-0.457512 0.281527 0.412317)
(-0.48429 0.322495 0.618149)
(-0.178652 0.749441 0.292393)
(-0.321584 1.16771 0.735283)
(-0.586203 0.347435 0.465467)
(-0.649103 0.351785 0.557745)
(-0.28794 0.943907 0.374231)
(-0.492011 1.29162 0.713823)
(-0.491996 0.998203 0.528312)
(-0.033323 1.05968 0.61584)
(-0.556985 0.856131 0.410163)
(-0.697272 0.837808 0.398407)
(-0.38419 1.23829 0.432659)
(-0.0193327 1.06356 0.617063)
(-0.291731 1.01366 0.585067)
(-0.505998 0.872135 0.587977)
(-0.820573 0.763997 0.609936)
(-0.586773 1.42295 0.873158)
(-0.412519 0.970881 0.502084)
(-0.505073 0.966625 0.398186)
(-0.447376 0.871022 0.353006)
(-0.3913 0.88077 0.396981)
(-0.616281 1.61501 0.613405)
(-0.149069 0.0870541 0.735222)
(-0.12161 0.104966 0.65926)
(-0.0856894 0.188433 0.850799)
(-0.084712 0.439052 0.822235)
(-0.418362 0.122976 0.673382)
(-0.348478 0.140451 0.626318)
(-0.255753 0.257601 0.838711)
(-0.242437 0.48699 0.803804)
(-0.52001 0.181617 0.582191)
(-0.43258 0.154204 0.570263)
(-0.333876 0.347184 0.784554)
(-0.2981 0.551687 0.772911)
(-0.230402 1.04567 0.453102)
(-0.296103 1.02052 0.358858)
(-0.480178 0.950469 0.435805)
(-0.5006 0.922681 0.38468)
(-0.577148 0.827103 0.482421)
(-0.524075 0.745706 0.439098)
(-0.652211 0.631615 0.524659)
(-0.563444 0.553271 0.510147)
(-0.452779 0.453406 0.717849)
(-0.381488 0.640452 0.742065)
(-0.36863 0.95575 0.422297)
(-0.381177 0.912813 0.371078)
(-0.488564 0.971584 0.414103)
(-0.375184 0.946429 0.408039)
(-0.448714 0.853725 0.434435)
(-0.316921 0.792836 0.4713)
(-0.392075 0.71576 0.492055)
(-0.262266 0.637828 0.56296)
(-0.464784 0.481617 0.639498)
(-0.301201 0.642179 0.751402)
(-0.415825 0.967493 0.35208)
(-0.181541 1.0864 0.277201)
(-0.359768 0.966346 0.239774)
(-0.383099 1.11566 0.302664)
(-0.509618 0.928096 0.465674)
(-0.656806 0.956393 0.562214)
(-0.561715 0.907855 0.321023)
(-0.812434 0.966244 0.504441)
(-0.288209 0.888141 0.207009)
(-0.313634 0.902176 0.269159)
(-0.369774 0.880398 0.310855)
(-0.103589 0.874957 0.257658)
(-0.321699 0.959481 0.0597824)
(-0.614026 1.12134 0.199906)
(-0.305741 0.955875 0.0291599)
(-0.66058 1.1212 0.07084)
(-0.556704 0.882371 0.163106)
(-1.00447 0.979739 0.337097)
(-0.566606 0.875862 0.0585464)
(-1.06858 0.978368 0.115525)
(-0.24573 0.89162 0.0316665)
(-0.53149 0.90014 0.172112)
(-0.224341 0.891893 0.0159155)
(-0.568631 0.900001 0.0596969)
(-0.341201 0.75358 0.205361)
(-0.251666 0.715956 0.208106)
(-0.478788 0.487939 0.233738)
(-0.184589 0.545277 0.148048)
(-0.346797 0.749028 0.326875)
(-0.0538254 0.697957 0.264005)
(-0.415075 0.481167 0.384294)
(-0.0172586 0.549934 0.269309)
(-0.329426 0.763594 0.0511999)
(-0.382992 0.713267 0.113962)
(-0.502309 0.498264 0.116375)
(-0.229716 0.546302 0.0680424)
(-0.27373 0.766696 0.0634542)
(-0.453553 0.705937 0.0816666)
(-0.445717 0.513658 0.0891906)
(-0.302823 0.546166 0.0676219)
(-0.0950555 0.0695248 0.528304)
(-0.0827316 0.0457418 0.322471)
(-0.0722505 0.0311009 0.10225)
(-0.0685877 0.0395425 0.596463)
(-0.0621726 0.0262439 0.344289)
(-0.0546081 0.0243234 0.113054)
(-0.27961 0.097212 0.507151)
(-0.223902 0.0558259 0.319179)
(-0.189805 0.041357 0.108405)
(-0.182134 0.0772711 0.586255)
(-0.142525 0.0607569 0.344553)
(-0.121016 0.0513719 0.113005)
(-0.337064 0.110759 0.466445)
(-0.284313 0.0884087 0.293489)
(-0.259735 0.0871092 0.0968583)
(-0.218276 0.135168 0.570791)
(-0.172854 0.108011 0.345609)
(-0.161031 0.0957192 0.115717)
(-0.255549 0.95759 0.240307)
(-0.219916 0.846559 0.134277)
(-0.21227 0.771568 0.037726)
(-0.432374 0.887858 0.315196)
(-0.318141 0.807035 0.20883)
(-0.263345 0.745759 0.072276)
(-0.414509 0.641104 0.38107)
(-0.29629 0.58311 0.26278)
(-0.234959 0.55096 0.0906519)
(-0.433583 0.441889 0.443881)
(-0.33275 0.37328 0.289003)
(-0.284931 0.343642 0.0962571)
(-0.279523 0.20676 0.564265)
(-0.178368 0.147881 0.354164)
(-0.136034 0.123232 0.123718)
(-0.621575 0.87016 0.281924)
(-0.523992 0.787669 0.162834)
(-0.44438 0.721839 0.0531166)
(-0.405857 0.9018 0.301634)
(-0.328452 0.803082 0.218163)
(-0.265055 0.729898 0.0826564)
(-0.367761 0.67445 0.362489)
(-0.276745 0.564415 0.267682)
(-0.213396 0.502853 0.0988251)
(-0.314765 0.444171 0.451062)
(-0.219856 0.344934 0.317398)
(-0.162381 0.304149 0.114063)
(-0.333508 0.219388 0.57149)
(-0.181159 0.146708 0.359568)
(-0.0978168 0.115607 0.128166)
(-0.424537 1.10356 0.0118494)
(-0.572862 1.07531 0.0813712)
(-0.337582 1.20595 0.114929)
(-0.433859 1.07776 0.165957)
(-0.462369 1.24177 0.0902823)
(-0.676458 1.07785 0.103049)
(-0.414626 1.50467 0.226025)
(-0.600105 1.13913 0.213839)
(-0.000786269 0.851237 0.0241279)
(-0.0284483 0.859337 0.0406569)
(0.0208601 0.842095 0.0257527)
(-0.00416186 0.778358 0.0423274)
(-0.118958 0.955542 0.0192526)
(-0.133083 0.895273 0.056017)
(-0.049974 0.940644 0.034504)
(-0.0268428 0.800617 0.0734681)
(-0.0285737 0.931503 0.128097)
(-0.0965639 0.921286 0.0626784)
(-0.380692 0.85678 0.162548)
(-0.553387 0.912561 0.0942286)
(-0.266583 1.13404 0.0857695)
(-0.149409 1.02312 0.14951)
(-0.405912 1.13806 0.136608)
(-0.403073 1.15731 0.0331827)
(-0.630683 1.24031 0.249771)
(-0.694937 1.28483 0.0576897)
(0.0245393 0.946125 -0.0830107)
(0.169463 0.983344 0.0223226)
(-0.307538 0.846647 0.0682842)
(-0.289297 0.822717 0.0482825)
(-0.292729 1.02693 0.045355)
(-0.225466 1.0549 0.0390829)
(-0.04068 0.662493 0.386064)
(-0.0213669 0.359093 0.17193)
(-0.0273148 0.621367 0.105119)
(-0.0115264 0.397206 0.0636431)
(-0.0783149 0.672807 0.39216)
(-0.00609589 0.36239 0.178421)
(0.0139664 0.620359 0.132761)
(0.0341078 0.394911 0.0807201)
(-0.370183 0.663926 0.387148)
(-0.0925393 0.364162 0.191572)
(-0.25275 0.619096 0.191582)
(-0.0644501 0.411474 0.131176)
(-0.366375 0.603227 0.136626)
(-0.110681 0.430426 0.0962016)
(-0.443207 0.61111 0.0631348)
(-0.140803 0.426848 0.0602472)
(-0.360455 0.85565 0.511017)
(-0.48094 0.727224 0.452858)
(-0.332303 0.854264 0.239429)
(-0.468253 0.728338 0.247801)
(-0.584763 0.94758 0.557827)
(-0.613978 0.852298 0.522421)
(-0.556945 0.960972 0.274383)
(-0.580142 0.846322 0.275939)
(-0.225968 0.834521 0.209225)
(-0.37265 0.605666 0.21465)
(-0.261635 0.866948 0.433146)
(-0.370759 0.595946 0.359857)
(-0.352179 0.875617 0.141039)
(-0.450488 0.726179 0.147933)
(-0.388007 0.88788 0.0761199)
(-0.454351 0.718416 0.0881129)
(-0.57996 0.988427 0.167464)
(-0.56904 0.840933 0.166396)
(-0.606836 0.990449 0.0893564)
(-0.570647 0.830833 0.0966138)
(-0.227818 0.828641 0.120398)
(-0.36001 0.608482 0.130588)
(-0.247506 0.827283 0.0647182)
(-0.365891 0.604985 0.0822782)
(0.011036 0.546031 0.183416)
(-0.0462137 0.365714 0.124464)
(-0.286684 0.478723 0.181847)
(-0.170795 0.311229 0.124604)
(0.0327931 0.507051 0.28752)
(-0.0300449 0.327732 0.163947)
(-0.265602 0.458939 0.272044)
(-0.150431 0.291038 0.172806)
(-0.00736557 0.560611 0.108547)
(-0.056952 0.388474 0.0894715)
(-0.29272 0.48711 0.114281)
(-0.186437 0.320714 0.0799004)
(-0.0249292 0.561899 0.0579879)
(-0.0673958 0.402157 0.0545834)
(-0.293449 0.486075 0.0717896)
(-0.192429 0.323051 0.0463065)
(0.0284813 0.104378 0.452668)
(0.0325755 0.0548168 0.304557)
(-0.00591055 0.19297 0.221806)
(0.00057844 0.106519 0.218607)
(0.118551 0.111251 0.451139)
(0.119013 0.0669211 0.313889)
(0.0108307 0.20546 0.222734)
(0.0182941 0.126651 0.217664)
(0.0278607 0.136543 0.470416)
(0.0820716 0.10042 0.330695)
(-0.0607126 0.227177 0.225922)
(-0.0334176 0.164243 0.21252)
(0.409808 0.52361 0.560684)
(0.389748 0.814242 0.614306)
(0.222543 0.377745 0.504172)
(0.172828 0.362722 0.331702)
(0.0226613 0.261897 0.18172)
(0.425546 0.794559 0.582404)
(0.430618 0.550745 0.529378)
(0.171118 0.322623 0.483234)
(0.253458 0.324541 0.391845)
(0.039097 0.216248 0.242997)
(-0.419338 0.830212 0.545228)
(-0.324657 0.650774 0.485224)
(-0.281778 0.515942 0.38191)
(-0.25814 0.401717 0.288441)
(-0.148699 0.255626 0.173431)
(0.0319927 0.0295829 0.248873)
(0.0286605 0.0219507 0.214137)
(0.00267765 0.063299 0.227014)
(-0.000528057 0.0475273 0.251669)
(0.101505 0.0412552 0.260148)
(0.0961823 0.0281854 0.213467)
(0.00862673 0.0870146 0.2309)
(0.000502389 0.0694374 0.250302)
(0.102773 0.0707833 0.277242)
(0.119585 0.0535838 0.218203)
(-0.0200852 0.124041 0.235868)
(-0.0295814 0.100943 0.250168)
(0.204566 0.801757 0.43931)
(0.0879815 0.766667 0.311484)
(0.321027 0.539989 0.401096)
(0.195294 0.509967 0.278119)
(0.142808 0.349545 0.308926)
(0.105029 0.345815 0.246748)
(0.162343 0.294299 0.282103)
(0.137108 0.264514 0.236877)
(-0.00859554 0.185019 0.220665)
(-0.0415899 0.151113 0.250569)
(-0.153877 0.754994 0.365481)
(-0.0966706 0.678681 0.317961)
(-0.0429637 0.581805 0.31684)
(0.0379536 0.50322 0.275413)
(-0.0375158 0.45095 0.264599)
(0.0302088 0.393094 0.237541)
(-0.0599362 0.343113 0.226933)
(-0.00861051 0.303083 0.221477)
(-0.0692143 0.225207 0.172799)
(-0.0776205 0.217135 0.23798)
(-0.207025 0.599268 0.283059)
(-0.187361 0.477268 0.191808)
(-0.394044 0.604589 0.187614)
(-0.236439 0.467883 0.113497)
(-0.327167 0.725 0.376196)
(-0.325593 0.5956 0.290359)
(-0.495983 0.725558 0.260478)
(-0.399668 0.590178 0.211001)
(-0.303711 0.503216 0.150014)
(-0.175806 0.400749 0.0899698)
(-0.149707 0.48713 0.218092)
(-0.146804 0.400543 0.159841)
(-0.464841 0.605846 0.187941)
(-0.203898 0.461874 0.08924)
(-0.511075 0.602458 0.0671251)
(-0.228614 0.461471 0.0384161)
(-0.553185 0.723968 0.201976)
(-0.408018 0.603014 0.146864)
(-0.590191 0.717565 0.0687824)
(-0.438102 0.601798 0.0571918)
(-0.369661 0.512989 0.160025)
(-0.142293 0.395462 0.0708701)
(-0.414082 0.512248 0.0615851)
(-0.165249 0.400729 0.0319848)
(-0.230374 0.391457 0.120646)
(-0.177239 0.324473 0.108742)
(-0.166552 0.264433 0.101531)
(-0.245265 0.270899 0.146471)
(-0.146264 0.376512 0.168328)
(-0.162035 0.316331 0.15569)
(-0.141203 0.252414 0.129071)
(-0.22715 0.256096 0.186496)
(-0.267078 0.408342 0.123373)
(-0.174018 0.331265 0.077856)
(-0.188662 0.271256 0.0743905)
(-0.281986 0.286419 0.10016)
(-0.327061 0.417847 0.0358307)
(-0.189005 0.331225 0.0167457)
(-0.240912 0.28168 0.0054873)
(-0.290782 0.29052 0.0171867)
(0.0277931 0.0634753 0.146226)
(0.0287517 0.0553667 0.0611611)
(0.03192 0.0456304 0.0180947)
(0.00172066 0.271279 0.165273)
(0.0101567 0.144973 0.0432926)
(0.0112085 0.118159 0.0115763)
(0.100865 0.0619923 0.150203)
(0.104091 0.060553 0.0669487)
(0.102831 0.0534968 0.0205956)
(0.00978321 0.296214 0.16632)
(0.0290409 0.172489 0.0454606)
(0.0287496 0.145671 0.0127672)
(0.129012 0.0858142 0.144452)
(0.1394 0.0951915 0.0683411)
(0.141017 0.0969832 0.0178626)
(-0.0171974 0.330574 0.165739)
(0.0285392 0.21761 0.0469848)
(0.0376953 0.192831 0.0111533)
(0.0443525 0.708164 0.19488)
(0.037256 0.648623 0.101146)
(0.0251482 0.608028 0.0239219)
(0.13743 0.478941 0.169208)
(0.138305 0.454481 0.0829005)
(0.127546 0.439852 0.0202805)
(0.111596 0.345445 0.159277)
(0.123349 0.333902 0.0768604)
(0.120139 0.329895 0.0210858)
(0.138534 0.291964 0.152004)
(0.144573 0.277066 0.0713735)
(0.139287 0.267591 0.0155975)
(-0.0429792 0.379856 0.167187)
(0.0130965 0.270534 0.0468658)
(0.0169939 0.242774 0.00728582)
(-0.140764 0.606546 0.243167)
(-0.0808504 0.545882 0.124578)
(-0.044091 0.506395 0.0345162)
(0.0332912 0.445765 0.211524)
(0.0731426 0.404493 0.105752)
(0.0942482 0.381477 0.029427)
(0.0337609 0.365674 0.186046)
(0.0833229 0.331097 0.0921031)
(0.104623 0.312238 0.0269347)
(0.0163496 0.346099 0.169932)
(0.0689534 0.300956 0.0733504)
(0.0837949 0.275442 0.0183746)
(-0.0769487 0.464022 0.181824)
(0.0177951 0.305905 0.044373)
(0.0287682 0.272163 0.0109765)
(0.00119829 0.199023 0.0654453)
(0.00135068 0.123228 0.0231011)
(0.00154408 0.0831996 0.00501033)
(0.00227546 0.0631273 -0.00538816)
(0.00999084 0.223355 0.0273106)
(0.0053205 0.133508 0.0101209)
(0.00421996 0.0876462 0.00286146)
(0.00383428 0.0647351 -0.000949716)
(0.000818496 0.20013 0.0692078)
(0.0026077 0.123203 0.0252109)
(0.00590004 0.0834185 0.00681249)
(0.00859334 0.0635496 -0.00305122)
(0.0162631 0.2282 0.0346108)
(0.0096813 0.136285 0.013906)
(0.0106214 0.0895734 0.00667784)
(0.0106443 0.0657892 0.0030367)
(-0.00752758 0.199855 0.0740429)
(0.000868727 0.122134 0.0278585)
(0.00853496 0.0840878 0.0100264)
(0.0155509 0.0638676 0.000715669)
(0.00615986 0.232932 0.0586732)
(0.007651 0.138122 0.0262379)
(0.00934881 0.0920905 0.00949058)
(0.0100977 0.0666447 0.0019027)
(0.00123663 0.250443 0.0439721)
(0.00446658 0.14604 0.0235211)
(0.00415375 0.0934756 0.00699462)
(0.00390702 0.0682205 -0.00111472)
(-0.00792006 0.257742 0.0399515)
(-0.00050641 0.151558 0.0248716)
(0.00376843 0.0960646 0.0132122)
(0.00614526 0.0703822 0.00722068)
(-0.0339475 0.21289 0.0606285)
(-0.00726286 0.129961 0.0260031)
(0.00213653 0.0876593 0.00741024)
(0.00854287 0.0650053 -0.00551186)
(-0.0525677 0.175982 0.0513212)
(-0.0123968 0.114899 0.0217202)
(-0.00129498 0.0808054 0.00919335)
(0.0152105 0.0623242 -0.00516608)
(-0.0229762 0.187561 0.0719312)
(-0.00306797 0.118138 0.0272739)
(0.00526253 0.0821638 0.00890812)
(0.0134706 0.0610978 -0.00330032)
(-0.0429176 0.162574 0.0645343)
(-0.00937887 0.108525 0.0245534)
(-0.00189395 0.0776997 0.00976002)
(0.0130882 0.0600109 -0.00836413)
(-0.0364441 0.229936 0.0480176)
(-0.00866122 0.138911 0.023637)
(0.0033081 0.0914226 0.00865385)
(0.0113429 0.0674794 -0.00194562)
(-0.059128 0.184062 0.0389534)
(-0.0147608 0.119566 0.0187793)
(-0.0014602 0.0827604 0.00956039)
(0.0180155 0.0641041 6.08194e-05)
(-0.0407126 0.239554 0.0346314)
(-0.0112758 0.14502 0.0201889)
(0.00317526 0.0942033 0.0111258)
(0.0137716 0.0694812 0.00634158)
(-0.0637699 0.187679 0.0263076)
(-0.016856 0.122928 0.015413)
(-0.00220916 0.0845062 0.00971924)
(0.0188124 0.0653595 0.00532438)
(0.000570532 0.151448 0.0825438)
(0.000815992 0.106333 0.0278257)
(0.00138493 0.076174 0.0053061)
(0.00291459 0.0600388 -0.010911)
(0.0017139 0.100791 0.0803825)
(0.00117424 0.0862911 0.0254832)
(0.000757915 0.0676297 0.00767827)
(0.00264085 0.0564609 -0.0146825)
(0.00333214 0.152037 0.082427)
(0.00283448 0.105939 0.0281728)
(0.00448994 0.076147 0.00592403)
(0.00801502 0.0599528 -0.0104233)
(0.00692685 0.105149 0.0779455)
(0.00397591 0.087495 0.0247817)
(0.0024995 0.0680585 0.00789766)
(0.00719348 0.0567783 -0.0142779)
(-0.0136393 0.155885 0.0807964)
(-0.00181709 0.10606 0.0281795)
(0.00457816 0.0768192 0.00861091)
(0.0134849 0.0604756 -0.00701392)
(-0.00532471 0.118146 0.0729444)
(0.0011247 0.0913411 0.0234368)
(0.00306924 0.0696186 0.00940426)
(0.0126484 0.0581339 -0.0114172)
(-0.00145922 0.154531 0.0708553)
(0.00429196 0.103812 0.0259484)
(0.00721221 0.0757376 0.0113652)
(0.0136919 0.0617698 0.000125832)
(0.000657858 0.129451 0.0800226)
(0.00355484 0.0941102 0.0261656)
(0.00252292 0.0717153 0.0128978)
(0.0127375 0.0580842 -0.0132277)
(-0.0364434 0.144719 0.0628005)
(-0.00710346 0.10112 0.0230212)
(-0.000471873 0.074213 0.011152)
(0.0176593 0.0591552 -0.00289998)
(0.00334554 0.050893 0.062569)
(0.00164884 0.0701805 0.0178425)
(0.00106785 0.0543761 0.00670838)
(0.00207067 0.0165381 -0.00962927)
(0.00603336 -0.00353623 0.0246483)
(0.00239886 0.0613286 0.00646286)
(0.00118669 0.0491424 0.00179486)
(0.000997072 0.017211 -0.00185444)
(0.00704933 0.0600029 0.0650499)
(0.00393381 0.0732214 0.0190962)
(0.00221414 0.0556326 0.0073178)
(0.00524398 0.0174313 -0.00915074)
(0.0154937 0.007417 0.0258596)
(0.00639356 0.0646852 0.00700892)
(0.00294084 0.0502115 0.00223013)
(0.00254078 0.0175772 -0.00141107)
(0.00482124 0.0772347 0.0668656)
(0.00440091 0.0786341 0.0205157)
(0.00299013 0.057453 0.00877964)
(0.00857572 0.0173803 -0.00790213)
(0.0198817 0.0262253 0.0266437)
(0.00900702 0.070392 0.00764303)
(0.00442316 0.0517407 0.00277361)
(0.0039814 0.0177745 -0.000890629)
(-0.00190752 0.0985777 0.0605757)
(0.00402699 0.085159 0.0193297)
(0.00374166 0.0603144 0.00993628)
(0.0119552 0.0188512 -0.00604683)
(0.0162626 0.0467017 0.026104)
(0.00974828 0.0768163 0.00790648)
(0.00520429 0.0540154 0.00373147)
(0.0050088 0.018536 3.81692e-05)
(-0.0180424 0.113183 0.055652)
(0.000602654 0.0912466 0.0191534)
(0.00117646 0.0638922 0.0104548)
(0.0111432 0.0218343 -0.00324257)
(0.00591603 0.05333 0.0236255)
(0.00838323 0.0818383 0.00832542)
(0.00460546 0.0561511 0.00495578)
(0.00501876 0.0192069 0.00126247)
(-0.042224 0.121129 0.0382784)
(-0.00451736 0.0981218 0.0150038)
(0.00034169 0.0654548 0.00704424)
(0.0127152 0.0208719 -0.00108799)
(-0.0130808 0.043967 0.0221163)
(0.00193353 0.0875382 0.0105149)
(0.00262053 0.0601852 0.00599779)
(0.00446187 0.020406 0.00298369)
(-0.0320251 0.117986 0.0445056)
(-0.00128795 0.0950853 0.0155288)
(0.000783633 0.0642879 0.00771365)
(0.0118048 0.0208603 -0.0024828)
(-0.00689957 0.0419021 0.022515)
(0.00483368 0.0849048 0.00934795)
(0.00374855 0.0581308 0.00552556)
(0.00494958 0.0196975 0.00216065)
(-0.0514769 0.122365 0.030528)
(-0.00830818 0.100271 0.0141577)
(-0.000819146 0.0662142 0.00730921)
(0.0138192 0.0195347 0.00100643)
(-0.0184635 0.0423842 0.0194819)
(-0.000806559 0.089769 0.0107465)
(0.00159153 0.0614831 0.00628438)
(0.00413914 0.020527 0.0037792)
(-0.0583433 0.124921 0.0211507)
(-0.0119436 0.102483 0.0124523)
(-0.00236446 0.0678797 0.00794222)
(0.0135902 0.0199199 0.00457996)
(-0.0232538 0.0464425 0.0158307)
(-0.00363682 0.092103 0.0103589)
(0.000272292 0.063063 0.00674571)
(0.00355074 0.02101 0.00479311)
(0.000995405 0.0523265 -0.000481012)
(0.000414785 0.0374059 0.000177905)
(0.00019806 0.0243511 0.000173607)
(0.000107036 0.0135749 0.00011189)
(7.18828e-05 0.00434645 7.89929e-05)
(0.00130543 0.0518047 -6.93248e-05)
(0.000626338 0.0373373 0.000121843)
(0.00031966 0.0243719 9.6871e-05)
(0.00017731 0.0135944 6.05295e-05)
(0.000120166 0.00435301 4.24247e-05)
(0.0023752 0.0529907 0.000255719)
(0.00095888 0.0377337 0.000535837)
(0.000454449 0.0245034 0.00035868)
(0.000245479 0.0136428 0.000215482)
(0.000164937 0.00436593 0.000149549)
(0.00292612 0.0526729 0.000730547)
(0.00139013 0.0377565 0.000530434)
(0.000709125 0.0245746 0.000312886)
(0.000394137 0.0136869 0.00018238)
(0.000267491 0.00437972 0.000125594)
(0.00314999 0.0543196 0.00102526)
(0.00119792 0.0381984 0.000955738)
(0.000559395 0.0246999 0.00058349)
(0.000301298 0.0137284 0.000343038)
(0.000202376 0.00439035 0.000236772)
(0.00390043 0.0537874 0.00287745)
(0.00182767 0.03825 0.0017839)
(0.000931556 0.0248113 0.00100579)
(0.00051844 0.0137952 0.000579356)
(0.000352153 0.00441111 0.000397894)
(0.00202185 0.0545335 0.00338502)
(0.000928707 0.0388048 0.00207988)
(0.000471236 0.0251209 0.00117437)
(0.000262513 0.0139452 0.000678238)
(0.000178557 0.00445539 0.000466584)
(0.00145816 0.0558104 0.00494524)
(0.000551573 0.0395942 0.00275565)
(0.000254473 0.0255581 0.00151145)
(0.000137031 0.0141578 0.000866344)
(9.22861e-05 0.00451837 0.000595237)
(0.00311385 0.0556564 0.00175147)
(0.00120995 0.0387537 0.00139436)
(0.000574463 0.02498 0.000825479)
(0.000312187 0.0138596 0.00048238)
(0.000210461 0.00442866 0.000332934)
(0.0014957 0.0593351 0.00189482)
(0.000501361 0.0394211 0.00131508)
(0.000224624 0.0251661 0.000758288)
(0.000119782 0.0139265 0.000440793)
(8.02657e-05 0.00444663 0.00030387)
(0.00328934 0.0559231 0.00120588)
(0.00139788 0.0386078 0.00110871)
(0.00069427 0.0248459 0.000664379)
(0.000383132 0.0137877 0.00038846)
(0.00025947 0.00440689 0.000267814)
(0.00141796 0.0592499 0.00230194)
(0.000498958 0.0391781 0.00138001)
(0.000230573 0.0250174 0.000761531)
(0.000124128 0.0138534 0.000436429)
(8.34198e-05 0.0044249 0.000299212)
(0.00240952 0.0561498 0.00227389)
(0.000797594 0.0392408 0.00165404)
(0.000350243 0.0252572 0.000968462)
(0.000185277 0.0139947 0.000565306)
(0.000123964 0.00446864 0.00039023)
(0.00141655 0.0604278 0.0025552)
(0.000445164 0.0398929 0.00157135)
(0.000194531 0.0254173 0.000886555)
(0.000103164 0.0140479 0.000512697)
(6.9123e-05 0.00448254 0.000353193)
(0.00213104 0.0574565 0.00392261)
(0.000528728 0.0400086 0.00221551)
(0.000186822 0.0256681 0.00121874)
(8.94731e-05 0.0141926 0.000699314)
(5.79228e-05 0.00452711 0.000480717)
(0.00118011 0.0618122 0.00328183)
(0.000252877 0.0405778 0.00182874)
(8.20532e-05 0.0257726 0.00100437)
(3.79214e-05 0.0142183 0.000576482)
(2.4271e-05 0.00453288 0.00039646)
(0.000838999 0.0537177 -0.000902542)
(0.000319166 0.0375911 8.28535e-05)
(0.00014792 0.0243484 0.000127366)
(7.90617e-05 0.013559 8.54419e-05)
(5.28808e-05 0.00434065 6.07968e-05)
(0.000611238 0.0563952 -0.000497449)
(0.00025378 0.0378027 2.21089e-05)
(0.000122975 0.0243534 4.79826e-05)
(6.67661e-05 0.01355 3.25628e-05)
(4.48588e-05 0.00433719 2.31882e-05)
(0.00205365 0.0543485 -0.000419712)
(0.000795484 0.0378506 0.000307846)
(0.000376502 0.0244626 0.000241174)
(0.000203406 0.013609 0.00014854)
(0.000136662 0.00435486 0.000103604)
(0.0015809 0.056901 -0.000322719)
(0.000664861 0.0379995 0.000103441)
(0.000327007 0.0244411 8.87461e-05)
(0.000178873 0.0135884 5.50417e-05)
(0.000120604 0.00434813 3.83915e-05)
(0.00287939 0.0556492 0.000176257)
(0.000985443 0.038285 0.000560096)
(0.000448224 0.0246419 0.000364118)
(0.000239347 0.0136868 0.000216244)
(0.000160348 0.00437703 0.000149456)
(0.00214421 0.0580181 0.000345364)
(0.000912723 0.0383584 0.00037469)
(0.000454493 0.0245967 0.00022121)
(0.000250094 0.0136573 0.000127783)
(0.000169117 0.0043678 8.76041e-05)
(0.00255399 0.0577073 0.00150484)
(0.00108566 0.0387779 0.00109875)
(0.000544074 0.0248222 0.000624797)
(0.000300519 0.0137629 0.000358597)
(0.00020343 0.00439854 0.00024534)
(0.00145499 0.059356 0.00102668)
(0.000687834 0.0387438 0.000704892)
(0.00035374 0.0247731 0.00039121)
(0.000196716 0.0137369 0.000222965)
(0.000133481 0.00439071 0.000152162)
(0.00130877 0.0596443 0.00284964)
(0.000587606 0.0390309 0.00147798)
(0.000300143 0.0249235 0.000785217)
(0.000166581 0.0138073 0.000443107)
(0.00011292 0.00441122 0.000302086)
(-0.0109014 0.434828 0.0765497)
(-0.0168737 0.672267 0.174373)
(-0.022742 0.453134 0.0783528)
(-0.0406881 0.681586 0.173218)
(-0.0194323 0.479244 0.0868098)
(-0.0496864 0.692321 0.172521)
(0.00524859 0.494477 0.103052)
(-0.0370104 0.696043 0.17922)
(0.0326965 0.469395 0.106656)
(0.00403197 0.662882 0.183735)
(-0.0242249 0.428288 0.0445041)
(-0.0459607 0.483669 0.0659403)
(0.0209001 0.43098 0.071251)
(0.017178 0.511082 0.110296)
(-0.0450475 0.429487 0.024426)
(-0.0738407 0.477433 0.0330275)
(-0.0595222 0.436426 0.00898568)
(-0.0860322 0.482307 0.0112988)
(-0.027679 0.386972 0.393817)
(-0.00648523 0.0663939 0.0943239)
(-0.00146966 0.014221 0.0216879)
(-0.000326399 0.0031978 0.00486189)
(-8.23547e-05 0.000567431 0.0012132)
(-0.00843981 0.430992 0.107691)
(-0.00405492 0.122864 0.0290537)
(-0.000563265 0.029892 0.00774471)
(-0.000152575 0.00679773 0.00176699)
(-6.82701e-05 0.00120568 0.000386058)
(-0.0849691 0.389266 0.388173)
(-0.0198061 0.0656272 0.0922527)
(-0.00450366 0.0139621 0.0211975)
(-0.000995247 0.00312872 0.00471343)
(-0.000251458 0.000553791 0.00118505)
(-0.0198575 0.432753 0.109702)
(-0.00552021 0.121889 0.032379)
(-0.00136679 0.0295562 0.00800031)
(-0.00028988 0.0066917 0.00186602)
(-7.93721e-05 0.00117698 0.000465387)
(-0.142245 0.389896 0.36882)
(-0.0332184 0.064888 0.0870971)
(-0.00757421 0.0136987 0.019948)
(-0.00167955 0.00305813 0.00443171)
(-0.000423479 0.000540349 0.00111593)
(-0.031891 0.432416 0.106483)
(-0.00945172 0.120618 0.0312773)
(-0.00232503 0.0291112 0.0077058)
(-0.000545578 0.0065701 0.00178819)
(-0.000138408 0.00115428 0.000447605)
(-0.189721 0.382711 0.335513)
(-0.0444307 0.0623703 0.0785843)
(-0.0101739 0.0130588 0.0179544)
(-0.00226337 0.0029097 0.00398735)
(-0.000571494 0.000513992 0.00100479)
(-0.0370241 0.423656 0.103174)
(-0.0118895 0.117172 0.029666)
(-0.00301851 0.028195 0.00721574)
(-0.000715779 0.00635602 0.00165996)
(-0.000181036 0.00111593 0.000413394)
(-0.235256 0.35925 0.278738)
(-0.0556396 0.0570738 0.0649916)
(-0.0128314 0.0119306 0.0148644)
(-0.00286968 0.00266788 0.00330712)
(-0.000727814 0.00047253 0.000834801)
(-0.0408861 0.397743 0.096945)
(-0.014478 0.110254 0.0271351)
(-0.00378178 0.0266293 0.00653122)
(-0.000907807 0.00602264 0.00149362)
(-0.000232244 0.00105929 0.000371012)
(-0.275038 0.314236 0.130069)
(-0.0670318 0.0519166 0.0317296)
(-0.0156776 0.0112121 0.0073875)
(-0.0035377 0.00254985 0.00165704)
(-0.000901856 0.000455343 0.00041935)
(-0.0659016 0.32189 0.0472251)
(-0.0204476 0.0937562 0.0134275)
(-0.00509587 0.0232684 0.00320928)
(-0.00118018 0.00535424 0.000721809)
(-0.0002981 0.00095135 0.000178985)
(-0.257526 0.327869 0.195022)
(-0.0625748 0.0533053 0.046901)
(-0.0145706 0.0113758 0.0108318)
(-0.00327365 0.00257035 0.00241684)
(-0.000831667 0.000457425 0.000610384)
(-0.0499872 0.344266 0.069468)
(-0.0171424 0.100086 0.0194945)
(-0.0044199 0.0246134 0.00469515)
(-0.00104621 0.00561685 0.00107321)
(-0.000264817 0.00099244 0.000268401)
(-0.282601 0.308542 0.0760453)
(-0.0689437 0.0514613 0.018697)
(-0.0161538 0.0111638 0.00437437)
(-0.00365115 0.00254488 0.000986254)
(-0.000932352 0.00045492 0.000250164)
(-0.0754304 0.313682 0.0265447)
(-0.0225522 0.090777 0.00784211)
(-0.00552911 0.0225462 0.00186599)
(-0.00126154 0.00520473 0.00041981)
(-0.000317673 0.000927503 0.000105109)
(-0.293928 0.306731 0.0262752)
(-0.0710781 0.0509448 0.00642562)
(-0.0166745 0.0110411 0.00150785)
(-0.00376701 0.00251762 0.000341343)
(-0.000961414 0.000449648 8.66913e-05)
(-0.0785854 0.313182 0.010635)
(-0.0235369 0.089945 0.0028767)
(-0.00581814 0.0222766 0.000639551)
(-0.00123364 0.00515383 0.0001781)
(-0.000328465 0.000916934 3.54602e-05)
(-0.0211411 1.38154 -0.00239751)
(-0.288915 1.9676 0.0156393)
(-0.26369 1.92077 0.187757)
(-0.0937049 1.33884 -0.0383239)
(0.067898 0.784027 0.0308361)
(0.115198 0.826062 0.0330447)
(0.320213 1.15687 0.0963899)
(0.468452 1.21089 0.123564)
(0.0717908 0.909027 0.0781558)
(0.343769 1.02112 0.146542)
(-0.0710912 1.44914 0.124048)
(0.102935 1.98307 0.191279)
(0.100938 1.83412 0.1503)
(0.202143 2.43527 0.186447)
(0.384401 1.19593 0.0778429)
(0.545012 1.36561 0.104735)
(0.581059 0.936397 0.0825658)
(0.73029 1.00207 0.0979672)
(0.237395 0.507583 0.0428963)
(0.307639 0.557202 0.0446033)
(-0.800929 0.193917 0.0926475)
(-0.575664 0.125819 0.0661877)
(-0.177269 0.0286351 0.024284)