/*--------------------------------*- C++ -*----------------------------------*\
| =========                 |                                                 |
| \\      /  F ield         | OpenFOAM: The Open Source CFD Toolbox           |
|  \\    /   O peration     | Version:  2306                                  |
|   \\  /    A nd           | Website:  www.openfoam.com                      |
|    \\/     M anipulation  |                                                 |
\*---------------------------------------------------------------------------*/
FoamFile
{
    version     2.0;
    format      ascii;
    arch        "LSB;label=32;scalar=64";
    class       volScalarField;
    location    "1.6";
    object      gradTx;
}
// * * * * * * * * * * * * * * * * * * * * * * * * * * * * * * * * * * * * * //

dimensions      [0 -1 0 1 0 0 0];

internalField   nonuniform List<scalar> 
5712
(
-6931.35
-8859.87
-16416.2
-24008.8
-24508.1
-42279
-18792.5
-47846.9
-15284.6
-33581.6
-22860.3
-34793.2
-20487.1
-26909
-9018.77
-10324.1
-15547.7
-17828.3
-20023.5
-19858.6
-15718.9
-19389.2
-23138.1
-20736.5
-5666.5
-4290.53
-7041.4
-4762.94
-13153.6
-10581.7
-22406.8
-16297.1
-17337.1
-18054.2
-19322.8
-18560.9
-6881.83
-5334.25
-40906.4
-54754.5
-26450
-32460.9
-54854.9
-71202.3
-28377.5
-32493.3
-30405.2
-42936.6
-26574.6
-35188.3
-15602.7
-25091.5
-3029.22
-1024.39
-3182.99
-1150.49
-9135.01
-3698.57
-12484.7
-4608.31
-8947.52
-3422.17
-9425.82
-3029.22
-16019.1
-5106.73
-20651.6
-6981.41
-24997
-12474.4
-22885.1
-13558.4
-23323.2
-15096.5
-20521.8
-15368.8
-18098.5
-10768.9
-18133.1
-9300.34
-23619.7
-15044.3
-23677.2
-15167.8
-21685.9
-16233.3
-21948.8
-16286.2
-19534
-12388
-20228.1
-12679.7
-18543.8
-8081.99
-8620.75
-10568.9
-18616.7
-8856.37
-7567.98
-10777.4
-19625.4
-8024.23
-9735.59
-10606.9
-20595.4
-8209.45
-10570.8
-11058.5
-3922.04
-4293.09
-1326.27
-2638.83
-11437.8
-12107.3
-4466.3
-8039.59
-14655.1
-16227.6
-7198.51
-12300.3
-12299.9
-833.075
-13924.6
-17431.8
-9604.74
-483.316
-7293.27
-12649.9
-20514.3
-14669.3
-10313
-12626.8
-11184.4
-9782.49
-15407
-3726.73
-3040.25
-2142.24
-2117.8
-10459
-8711.95
-6393.81
-6060.93
-13000.3
-10814.5
-8346.89
-7452.5
-5760.04
-7402.59
-12004.4
-12515
-14428.7
-13101.9
-16305.3
-14086.1
-11319.5
-9537.2
-9215.76
-9529.42
-12214.1
-9379.61
-11217.8
-7923.02
-9801.87
-6556.65
-11619.6
-7530.03
-10395.6
-4538.52
-8994.2
-9577.49
-12740.5
-16420.2
-14042.9
-20310.8
-7205.23
-7840.86
-9244.34
-2589.71
-8042.48
-15350.6
-7643.53
-16514.5
-13917.6
-25111.7
-14165.1
-26714.4
-6143.25
-13287.3
-5608.51
-14215.8
-8530.02
-6291.65
-11969.7
-4614.71
-8669.92
-1345.64
-10376.9
-431.466
-8235.65
-9574.79
-12557.7
-5742.89
-6843.25
-11338.8
-11142.9
-7570.57
-2376.39
-2068.29
-1806.26
-1714.69
-1554.32
-1365.2
-6990.25
-5597.54
-4745.13
-4553.34
-3563.13
-3025.39
-8426.59
-7107.83
-6493.38
-5456.91
-4321.35
-4025.78
-6388.72
-5497.89
-5306.76
-10809.3
-7953.53
-6583.62
-10362.7
-7407.24
-5873.97
-10839.6
-8318.74
-7123.27
-6988.08
-4459.19
-3400.84
-15539.4
-13099.8
-11109.5
-10146.4
-8211.3
-6626.38
-9194.03
-6918.62
-5334.91
-7869.13
-5496.41
-4059.54
-8337.69
-4528.97
-2445.42
-10613.4
-14321.6
-8439.55
-10846.5
-11559.2
-16911.4
-10365.6
-15002.6
-19.6567
-711.208
521.504
-104.046
-2973.96
-3327.06
-1249.35
-671.07
-714.343
-2414.1
-9517.29
-13834.7
-6664.57
-3735.22
-10147.8
-10076.8
-15767.1
-17373.4
613.483
4236.57
-7688.44
-7232.43
-7318.23
-5636.65
-1017
-534.174
-682.871
-288.159
-1957.87
-152.397
349.161
852.695
-9254.57
-2313.48
-6318.75
-1611.25
-9159.37
-2767.02
-11080.2
-3520.08
-9011.38
-12023.5
-8307.58
-11706.3
-14619.1
-15349.4
-13923.6
-14503.6
-5649.21
-9316.25
-6540.87
-9268.98
-8804.47
-11262.2
-9700.17
-11358.8
-14499
-14226
-15170.9
-14266.2
-5695.46
-9000.25
-6187.66
-9147.27
275.9
-1155.34
-7167.1
-4269.88
819.828
-751.123
-6640.05
-3760.77
-184.139
-1423.8
-7317.99
-4660.93
-623.23
-1684.9
-7336.22
-4810.73
712.033
814.388
-147.764
14.461
2963.78
2975.34
270.767
457.353
696.516
2051.79
-1517.82
-835.44
10245.2
9743.7
5563.59
4320.69
566.531
10638.6
10765.5
4277.95
6336.44
977.425
-10483.4
-8116.42
-7044.45
-6453.51
-3717.47
799.818
716.512
66.9412
-13.2014
2537.64
2404.56
215.668
12.5597
2569.33
2989.63
-502.131
-739.535
5114.16
2199.54
8025.68
4882.34
3570.19
2625.73
4058.58
3427.7
-214.888
-1039.75
-3846.92
-2416.76
-1074.09
948.841
-937.894
755.221
-1498.4
-215.263
-1730.36
-1940.51
-5175.63
-4684.02
-9851.09
-5910.97
-8179.16
-8139.82
-12399.6
-9991.7
-7592.77
-4395.14
-3742.67
-3670.11
-11621
-5097.46
-12776.9
-5715.35
-13829.6
-10200.5
-14754.8
-10952.6
-9241.53
-3557.32
-10352.1
-4131.22
-5759.36
-4430.96
-4163.8
-6131.63
-3656.59
-4050.88
-3530.08
-5678.75
-6676.94
-4350.45
-4716.55
-7049.65
-8176.53
-4725.12
-6022.81
-7269.55
694.828
718.793
797.999
43.0165
253.917
280.213
2521.63
2602.29
2570.77
244.58
726.022
718.74
3225.31
3484.99
3525.43
-429.935
713.479
942.383
1108.81
931.4
628.705
3435.76
3457.63
3188.65
2789.89
3083.73
3003.48
3463.35
3614.32
3482.18
-1074.48
327.412
424.846
-3519.1
-2021.26
-1102.27
832.28
1828.57
2356.21
844.024
2083.07
2615.58
408.74
1723.83
2094.87
-1923.72
444.877
719.204
29.9572
33.767
38.6021
56.8864
249.771
133.013
105.499
95.8571
20.4624
65.1925
147.501
214.833
406.578
242.033
265.535
266.109
-188.189
21.7182
213.374
388.772
153.997
191.275
233.72
252.441
30.9157
111.665
103.844
97.6756
-198.002
-12.6603
94.2107
153.631
-848.688
-181.571
53.4132
213.572
-1314.19
-309.919
-32.3746
380.262
-574.405
-76.6992
131.563
336.766
-1072.94
-234.472
-47.3488
327.205
-911.101
-216.53
82.7025
283.573
-1478.2
-369.019
-36.505
450.388
-1017.81
-281.895
79.3815
344.29
-1594.25
-421.4
-55.2289
470.31
14.2633
20.3998
34.6233
72.8648
42.8476
29.3559
18.9479
66.0213
83.3034
70.8621
112.249
200.375
173.171
99.3977
62.4875
179.837
-340.983
-45.4274
114.454
337.123
-133.118
28.1174
76.731
316.21
-36.4806
107.299
180.305
342.296
16.4464
88.8709
63.073
318.438
-911.084
-177.587
-11.7968
441.483
83.6385
41.2209
26.6963
51.7669
150.834
59.9715
29.6672
24.9268
176.233
98.3452
55.3536
131.099
387.342
159.839
73.521
63.5194
120.531
110.023
74.7532
214.393
497.042
225.176
110.579
99.5349
-47.688
100.675
93.5414
298.88
406.565
243.707
130.107
125.22
-451.059
15.0664
29.4115
278.581
147.901
209.581
115.136
125.469
-1055.6
-112.934
8.54226
317.881
-327.021
48.3384
65.5133
111.547
-800.629
-32.1988
19.5908
295.119
-172.489
120.842
93.7138
123.739
-1286.92
-207.704
-20.4786
345.48
-461.587
-20.164
39.7883
103.478
-1458.58
-298.59
-59.1114
339.756
-581.346
-90.9205
6.80731
88.7685
24.8851
10.3696
4.95149
2.67589
1.79707
32.6357
15.6584
7.99151
4.43275
3.00414
59.38
23.972
11.3612
6.13697
4.12344
73.1529
34.7533
17.7281
9.85342
6.68729
78.7498
29.9479
13.9849
7.53246
5.05939
97.5109
45.6918
23.2889
12.961
8.80382
50.5463
23.2177
11.7809
6.56282
4.46392
36.454
13.7893
6.36183
3.42578
2.30715
77.8462
30.2488
14.3616
7.80467
5.26152
37.3924
12.534
5.6156
2.99456
2.00664
82.2336
34.9469
17.3567
9.5783
6.48676
35.4491
12.4739
5.76433
3.10321
2.0855
60.238
19.9399
8.75608
4.63192
3.0991
35.4138
11.1291
4.86328
2.57909
1.72807
53.276
13.2182
4.67056
2.23683
1.44807
29.5028
6.32192
2.05133
0.948036
0.606775
20.975
7.97916
3.698
1.97654
1.32202
15.2809
6.34449
3.07436
1.66915
1.12147
51.3413
19.8871
9.41254
5.08515
3.41654
39.5226
16.6215
8.17517
4.47182
3.01509
71.9846
24.6361
11.2056
5.98368
4.00869
53.6053
22.8181
11.3623
6.25234
4.22793
63.8499
27.1415
13.6018
7.51298
5.08576
36.3746
17.1959
8.84349
4.91789
3.33702
32.7193
14.6901
7.50358
4.16451
2.823
-272.536
-421.843
-568.55
-1017.2
-485.808
-1242.16
131.215
-925.26
817.413
100.799
-605.622
-1149.02
522.503
429.449
-1126.19
-1846.02
-1488.05
-2150.8
-691.975
-162.131
-36.7415
-8.15998
-2.05887
-210.995
-101.373
-14.0816
-3.81437
-1.70675
-2124.23
-495.153
-112.591
-24.8812
-6.28644
-496.437
-138.005
-34.1699
-7.24701
-1.9843
-3556.12
-830.461
-189.355
-41.9888
-10.587
-797.276
-236.293
-58.1258
-13.6395
-3.46021
-4743.01
-1110.77
-254.347
-56.5842
-14.2874
-925.602
-297.239
-75.4626
-17.8945
-4.5259
-5881.41
-1390.99
-320.786
-71.742
-18.1953
-1022.15
-361.949
-94.5445
-22.6952
-5.80611
-6875.94
-1675.79
-391.94
-88.4426
-22.5464
-1647.54
-511.19
-127.397
-29.5046
-7.4525
-6438.14
-1564.37
-364.266
-81.8412
-20.7917
-1249.68
-428.559
-110.497
-26.1553
-6.62043
-7065.04
-1723.59
-403.844
-91.2787
-23.3088
-1885.76
-563.804
-138.228
-31.5386
-7.94183
-7348.19
-1776.95
-416.861
-94.1752
-24.0354
-1964.63
-588.423
-145.454
-30.8411
-8.21161
-528.528
-7222.86
-6592.26
-2342.62
1697.45
2879.96
8005.34
11711.3
1794.77
8594.23
-1777.28
2573.38
2523.46
5053.59
9610.03
13625.3
14526.5
18257.2
5934.88
7690.97
-20023.2
-14391.6
-4431.72
-3357.56
-2398.09
-3390.72
-3244.44
-12179.6
-11329.6
-9777.21
-10329.4
-8359.08
-6030.15
-7986.76
-5149.06
-4364.31
-5248.82
-3602.5
-19793.5
-10100.4
-3431.14
-5902.35
-8201.29
-5662.66
-6085.27
-4493.71
-2667.04
-3757.86
-4071.01
-4418.02
-19659.3
-12783.9
-12091.2
-8673.24
-8514.09
-9038.12
-3702.24
-4833.08
-6306.49
-14033.6
-11899.7
-9734.59
-8688.94
-7176.93
-9273.15
-6283.35
-4763.71
-3538.22
-1758.82
-3893.79
-3209.12
-2388.45
-1479.04
-503.911
-2988.64
-2491.62
-1866.39
-1155.27
-391.493
-2123.22
-1758.04
-1307.05
-803.795
-271.298
-3023.85
-2523.96
-1890.19
-1168.14
-395.093
-2869.07
-2374.59
-1767.15
-1089.12
-368.427
-7711.47
-5781.34
-4404.9
-3930.55
-4075.11
-6103.19
-4396.88
-3050.07
-2458.87
-1678.47
-6088.58
-3653.59
-2489.87
-1685.17
-784.657
-5269.76
-3499.54
-2282.5
-1615.45
-928.342
-3889.59
-2406.14
-1475.99
-994.886
-476.19
-4748.6
-3523.26
-2413.3
-1429.44
-488.102
-5430.95
-3491.91
-2268.21
-1341.96
-493.629
-3377.83
-2028.89
-1216.59
-656.996
-219.996
-3580.17
-2747.29
-1921.03
-1141.43
-383.211
-4173.18
-3100.18
-2101.8
-1217.69
-402.792
-2988.4
-2313.71
-1624.23
-962.624
-320.57
-12916.8
-9660.32
-7595.89
-6508.75
-5941.53
-7379.99
-5297.13
-3814.15
-2532.4
-1109.63
-2840.17
-2207.14
-1568.1
-948.585
-324.813
-4968.24
-3937.95
-2856.78
-1761.72
-613.443
-6671.44
-5185.71
-3766.88
-2388.06
-890.792
-4786.52
-3822.15
-2802.25
-1748.93
-615.132
-5233.6
-4239.75
-3131.37
-1949.39
-676.063
-3889.17
-3157.37
-2323.1
-1431.57
-488.768
-2290.43
-1836.03
-1327.28
-801.769
-268.913
-3295.61
-2702.62
-1994.39
-1222.1
-412.478
-3446.7
-2729.65
-1960.52
-1185.53
-400.68
-3806.71
-3072.86
-2246.39
-1376.05
-467.978
-13465.7
-10931.9
-8887.17
-7636.56
-6372.96
-8796.35
-6226.65
-4692.54
-3379.22
-1668.43
-8815.38
-6881.69
-5125.63
-3680.51
-1738.08
-6762.82
-5073.92
-3754.53
-2502.73
-1000.37
-7046.17
-5576.02
-4110.11
-2628.35
-974.377
-6992.11
-5208.66
-3830.16
-2541.4
-1003.07
-3156.86
-2531.67
-1852.04
-1145.3
-396.132
-4240.11
-3483.23
-2579.75
-1588.44
-538.358
-5393.78
-4340.65
-3186.3
-1974.65
-682.6
-5862.52
-11966.7
-12409.5
-34116
-12179.9
-45492.1
-6666.89
-16206.3
-12189.7
-9386.05
-20341.6
-16918
-12094.5
-11305.5
-22736.7
-17909.9
-4323.83
-3220.61
-8398.34
-5790.65
-9681.17
-7302.28
-26071.4
-19316.7
-15922.2
-12033
-16387.1
-9722.63
-1221.69
-3951.08
-42362.5
-55357.6
-25563.1
-32314.3
-55814.6
-71603.6
-27397.3
-32258.2
-31639.8
-43575.2
-25765.3
-35138.1
-17191.4
-25851.9
-2079.03
-550.051
-3662.27
-1251.19
-7070.47
-3171.19
-14367.6
-5197.88
-3094.99
-1767.24
-7753.34
-2443.31
-16044.3
-5048.82
-20842.8
-7033.55
-17077
-8888.93
-19776.3
-11733
-15431.3
-11069.1
-17428
-13445.8
-15902.1
-9309.39
-12553
-6529.35
-22422
-14226
-23378.8
-14944.6
-20454.1
-15398.5
-21619.1
-16059.6
-18730.7
-11717
-20039.5
-12494.9
-17498.4
-7770.86
-7654.64
-10171.6
-15645.2
-7959.12
-5766.82
-10041.6
-19354.3
-7946.53
-9286.98
-10414.6
-20567
-8203.38
-10445
-11003.2
-1194.04
-1084.16
-294.377
-1315.06
-4854.86
-5049.92
-3068.71
-6147.35
-2769.35
-3451.3
-4803.14
-9107.91
-12313.5
-9691.91
-9710.42
-12237.8
-8183.76
-7589.53
-8236.13
-7247.78
-14205.9
-12620.6
-11921.2
-10134.2
-7166.03
-6240.23
-13676.9
-1174.74
-879.217
-663.23
-745.537
-4526.76
-3579.9
-3868.39
-3411.75
-707.19
480.992
-4586.31
-3607.39
-10182.1
-10814.8
-9553.76
-8765.31
-7310.03
-5309.56
-9631.61
-7650.31
-8835.31
-6919.69
-11725.6
-11811.3
-10126.4
-7762.68
-7577.65
-5019.92
-6770.78
-4187.18
-10276.6
-6191.93
-9442.43
-4951.42
-8449.84
-9534.08
-13197.4
-17460.4
-13935.3
-20320.8
-6548.71
-7684.1
-7907.31
-2736.34
-7821.28
-15234.4
-7585.46
-16465.4
-13804.9
-25222
-14124.4
-26698.3
-5878.78
-13148.9
-5540.84
-14169.7
-8065.01
-6229.7
-11797
-4689.33
-7706.71
-1661.25
-10137.6
-1109.39
-8043.85
-9498.84
-12477.6
-5751.22
-6789.65
-11310.8
-11119.3
-7563.43
-859.196
-796.26
-597.473
-689.165
-2726.16
-1997.23
-2497.57
-2275.28
1060.06
532.564
-2921.24
-3224.27
-10673.7
-10058.9
-7797.31
-6656.27
-4228.57
-3522.67
-6012.13
-4934.78
-5826.39
-4235.76
-18328
-15886.7
-8110.37
-6772.46
-6277.33
-4654.94
-5276.85
-3287
-5726.61
-2396.64
-5635.45
-9280.65
-4913.73
-9458.8
-8542.75
-10614.9
-9629.53
-13104.2
-971.32
-681.901
-724.589
-601.398
-3609.5
-2514.58
-2912.06
-1553.51
-1257.91
-1566.66
-8320.96
-8906.53
-4608.79
-4136.5
-9505.37
-9909.03
-14831.5
-17103
464.509
4090.03
-7360.04
-7186.34
-7143.13
-5647.03
-1030.07
-917.766
-1118.87
-911.624
-1624.77
-1031.27
-476.586
-373.053
-8013.57
-3555.78
-6806.79
-2963.43
-9317.26
-3567.41
-11146.5
-3842.9
-5347.24
-10256
-7015.64
-10751.2
-8807.46
-11871.9
-11656.1
-12877.4
-5128.42
-9048
-4604.04
-9002.53
-8251.59
-10856.2
-9534.45
-11249.6
-13532.9
-13538.2
-14893.4
-14079.8
-5525.95
-8899.79
-6145.07
-9126.49
-220.983
-1884.03
-7518.58
-4853.97
-197.132
-1946.35
-7447.06
-4643.9
-551.858
-1933.08
-7506.16
-5014.67
-773.752
-1889.01
-7391.29
-4931.62
-1026.98
-1114.67
-947.443
-1006.24
-1966.09
-1988.59
-1274.97
-1354.34
-8179.27
-7442.29
-3598.48
-3561.81
-3587.76
-5086.37
-3870.5
-27.0461
-1510.27
-1157.17
-1288.46
-3536.85
2795.93
-570.35
-14046.2
-11737.5
-10380.3
-8804.74
-5214.1
-1111.16
-985.204
-1121.8
-1362.97
-1952.46
-1518.7
-1733.84
-2288.91
-7707.2
-7504.71
-3933.32
-5015.43
-4966.12
-6658.56
-3042.12
-4972.07
-4668.26
-5075.42
-919.022
-1309.43
-2451.67
-3704.71
-9684.61
-7889.28
-7491.94
-5450.54
-6372.18
-4505.73
-5451.84
-3884.04
-3735
-4046.75
-8141.4
-7993.7
-11027.4
-7077.34
-10395.6
-11085
-13049.3
-10945.8
-9020.68
-5512.24
-6579.72
-6519.77
-12061.2
-5811.85
-12886
-5884.7
-13978.6
-10805
-14777
-11077.7
-9881.95
-4249.13
-10528.8
-4311.88
-7106.45
-5423.84
-5334.16
-7224.93
-6036.54
-6311.11
-5252.18
-7502.92
-7369.07
-4993.1
-5372.67
-7738.65
-8390.11
-4924.13
-6233.41
-7464.17
-775.682
-673.076
-979.713
-737.378
-1314.08
-1583
-1411.55
-1074.86
-7264.64
-6363.34
-3313.25
-1498.09
-7801.99
-7364.04
-5985.41
-5357.94
-4897.85
-4209.22
-1678.21
-1766.31
-3526.61
-1634.63
-8586.16
-7318.1
-4789.32
-3841.03
-3630.29
-2394.22
-2561.85
-1231.29
-3643.09
-92.1688
-200.403
-89.3633
-30.9904
16.8433
-178.777
-107.881
-30.5588
16.525
-544.303
-234.542
-3.45286
136.605
-472.626
-263.521
-11.9604
104.545
-901.24
-351.956
33.808
314.008
-870.54
-410.786
-126.042
21.7567
-605.641
-277.843
-133.54
-41.8842
-474.908
-188.142
-13.2697
88.5289
-1365.47
-471.319
-125.283
92.507
-1620.67
-460.335
-112.927
364.09
-1302.04
-448.145
-78.3134
203.369
-1468.23
-412.642
-137.151
325.001
-1283.23
-436.694
-46.1306
213.363
-1683
-476.182
-99.7127
427.497
-1169.59
-374.79
24.249
313.442
-1668.75
-462.063
-79.5482
461.64
-187.739
-74.4064
-11.9563
53.4227
-161.243
-56.4154
-25.855
49.6884
-483.438
-193.523
-14.9298
142.274
-404.639
-147.446
-65.2191
129.833
-965.539
-331.216
-15.1585
298.08
-875.026
-286.178
-82.3732
267.517
-1067.73
-382.229
-66.6688
227.882
-805.806
-267.468
-105.834
297.65
-1475.36
-410.175
-121.645
466.972
-117.022
-41.9517
-12.4662
33.9136
-54.8225
-28.5479
-11.4967
0.852169
-352.291
-121.481
-55.0898
78.3669
-179.707
-85.2287
-43.4821
-4.47985
-626.315
-203.056
-84.8241
140.453
-362.522
-149.817
-67.6443
-2.87538
-952.807
-292.82
-106.119
214.88
-630.824
-221.511
-90.0849
1.00659
-1255.2
-353.626
-175.065
174.876
-846.523
-267.594
-123.503
-15.5347
-1673.92
-459.127
-189.85
216.457
-836.725
-250.931
-104.079
6.82997
-1612.43
-448.322
-212.984
176.68
-925.531
-278.18
-119.836
-8.19842
-1656.74
-426.038
-148.395
281.831
-752.135
-204.822
-66.6018
40.452
-1578.84
-371.754
-102.512
318.103
-671.19
-150.335
-27.8978
68.3471
-2.34048
-5.70418
-3.96538
-2.44082
-1.71743
-16.2099
-11.7814
-7.03094
-4.15941
-2.8936
-3.83724
-13.1577
-9.19178
-5.65045
-3.97245
-35.496
-26.3436
-15.7498
-9.30497
-6.46704
1.2791
-15.8
-11.3209
-6.97714
-4.90604
-47.2633
-35.0663
-20.8645
-12.2953
-8.53685
-23.455
-17.7735
-10.6182
-6.25514
-4.33977
-1.38914
-7.22539
-5.13827
-3.1611
-2.21896
-7.77126
-17.8071
-11.9582
-7.25736
-5.08093
5.36646
-5.72445
-4.41588
-2.75118
-1.93994
-26.9664
-25.1786
-15.34
-9.09019
-6.32325
1.29561
-6.72005
-4.73016
-2.89707
-2.03322
10.9291
-8.06167
-6.63964
-4.19165
-2.96318
7.55517
-4.57426
-3.74141
-2.34836
-1.65727
30.8654
0.453044
-2.35843
-1.79482
-1.32224
20.2377
1.01233
-0.872178
-0.728455
-0.544837
1.59349
-3.81586
-2.85933
-1.78458
-1.26038
-2.90161
-3.92769
-2.52208
-1.52195
-1.06583
-1.78314
-11.217
-7.69149
-4.69678
-3.2953
-11.2766
-11.4185
-7.0057
-4.17111
-2.90742
11.6957
-11.7023
-8.87099
-5.51328
-3.88327
-19.7334
-16.9132
-10.0597
-5.93664
-4.12495
-24.9826
-20.8835
-12.3345
-7.26232
-5.04566
-24.1952
-14.5586
-8.16499
-4.74741
-3.28527
-18.7618
-12.3917
-7.05216
-4.12028
-2.85727
-38.1169
-198.659
-38.0211
-500.952
71.1637
-680.141
417.483
-580.78
721.317
29.9491
-720.826
-1262.32
274.058
73.1421
-1176.94
-1883.98
-1501.01
-2158.81
-650.561
-154.782
-35.2642
-7.85193
-1.98424
-167.277
-93.8018
-13.0581
-3.63369
-1.64721
-2009.47
-474.04
-108.273
-23.9787
-6.06673
-398.721
-123.379
-31.9302
-6.92471
-1.92429
-3381.98
-797.277
-182.489
-40.5468
-10.2368
-692.88
-219.707
-55.458
-13.1928
-3.37524
-4547.27
-1071.41
-246.021
-54.8181
-13.8574
-870.441
-286.772
-73.5257
-17.5243
-4.45024
-5708.81
-1352.21
-312.156
-69.8649
-17.7325
-1040.4
-360.598
-93.7419
-22.4622
-5.74758
-6803.83
-1654.98
-386.69
-87.2177
-22.2311
-1669.08
-513.599
-127.534
-29.4733
-7.43555
-6327.06
-1533.84
-356.924
-80.1854
-20.3764
-1296.64
-432.332
-110.57
-26.0747
-6.5918
-7025.26
-1711.84
-400.786
-90.5479
-23.1169
-1891.61
-564.314
-138.197
-31.5099
-7.93121
-7335.29
-1773.14
-415.851
-93.9301
-23.9706
-1965.08
-588.324
-145.399
-30.8309
-8.20768
-508.673
-7119.63
-6263.89
-2206.2
-1590.07
-908.557
-3725.5
-2653.47
-6605.88
-6158.93
-3161.13
-2363.21
-319.506
-496.973
-865.136
-1424.63
-2167.43
-3038.24
-233.052
-508.596
-1069.06
-1884.63
-2880.82
-3930.35
-241.485
-111.221
-420.396
-286.321
-783.998
-646.5
-1327.07
-1225.11
-1937.24
-1850.8
-2587.27
-2315.58
-3832.54
-4406.25
-4878.01
-7420.75
-8431.33
-9363.41
-4846.24
-5412.96
-5463.27
-5054.21
-4388.33
-3881.32
-288.385
-244.042
-185.136
-115.47
-39.2271
-448.201
-378.917
-287.18
-178.983
-60.7797
-779.465
-658.224
-498.322
-310.328
-105.34
-1281.79
-1080.75
-817.041
-508.31
-172.464
-1946.06
-1637.11
-1235.22
-767.521
-260.283
-2718.67
-2279.02
-1714.76
-1063.94
-360.691
-210.256
-177.827
-134.83
-84.0582
-28.5496
-458.405
-387.271
-293.313
-182.715
-62.0315
-962.61
-812.337
-614.628
-382.604
-129.85
-1694.54
-1427.76
-1078.77
-670.928
-227.616
-2584.68
-2172.78
-1638.58
-1017.98
-345.226
-3515.09
-2945.39
-2215.8
-1375.01
-466.248
-218.024
-184.563
-140.06
-87.3776
-29.6873
-100.425
-85.0214
-64.5268
-40.2583
-13.6786
-379.301
-320.828
-243.27
-151.669
-51.5133
-258.397
-218.626
-165.821
-103.404
-35.1241
-706.769
-597.227
-452.416
-281.859
-95.6953
-583.006
-492.826
-373.455
-232.72
-79.0205
-1194.8
-1008.11
-762.582
-474.601
-161.05
-1103.26
-931.08
-704.422
-438.428
-148.774
-1740.63
-1465.29
-1106.1
-687.395
-233.102
-1663.25
-1400.27
-1056.92
-656.684
-222.642
-2316.07
-1941.9
-1460.83
-905.925
-306.965
-2073.12
-1737.89
-1306.55
-809.518
-274.093
-3410.2
-2843.35
-2131.51
-1321.03
-448.162
-3882.64
-3209.89
-2395.24
-1485.27
-505.97
-4223.12
-3444.13
-2556.9
-1594.55
-551.108
-6212.09
-4959.98
-3675.17
-2342.45
-849.734
-6657.98
-5158.34
-3836.71
-2556.85
-1032.14
-7074.83
-5371.28
-4010.63
-2763.81
-1202.55
-4314.04
-3598.86
-2699.46
-1673.8
-567.926
-4785.41
-3967.98
-2966.51
-1839.85
-625.827
-4778.77
-3928.99
-2927.25
-1820.47
-623.528
-4341.35
-3524.03
-2617.72
-1642.41
-573.188
-3639.32
-2891.07
-2144.82
-1376.74
-504.769
-3099.39
-2407.83
-1786.06
-1176.93
-455.792
-334.602
-544.408
-950.981
-1558.1
-2360.64
-3286.66
-253.674
-573.447
-1185.47
-2059.06
-3108.67
-4184.09
-255.473
-122.681
-465.087
-324.231
-867.238
-721.507
-1462.09
-1354.59
-2146.69
-2092.18
-2872.85
-2696.46
-4104.42
-4672.17
-5132.15
-7590.06
-8510.93
-9387.91
-5076.49
-5567.82
-5517.73
-5019.23
-4317.16
-3846.74
-302.103
-255.748
-194.095
-121.098
-41.1467
-491.332
-415.752
-315.395
-196.721
-66.8324
-857.628
-725.089
-549.632
-342.633
-116.372
-1403.6
-1185.24
-897.46
-559.064
-189.821
-2122.96
-1789.47
-1352.96
-842.083
-285.831
-2947.47
-2477.46
-1869.21
-1162.33
-394.519
-228.988
-193.807
-147.056
-91.737
-31.1682
-517.365
-437.617
-331.873
-206.954
-70.3018
-1068.61
-903.027
-684.226
-426.427
-144.817
-1853.76
-1564.37
-1183.94
-737.316
-250.323
-2793.41
-2352.66
-1777.68
-1106.12
-375.438
-3748.89
-3148.29
-2373.85
-1475.75
-500.899
-230.727
-195.393
-148.341
-92.5761
-31.4598
-110.824
-93.8792
-71.2935
-44.5027
-15.125
-419.909
-355.48
-269.79
-168.33
-57.1961
-292.826
-247.984
-188.273
-117.5
-39.9304
-782.515
-661.977
-502.065
-313.098
-106.36
-651.244
-551.143
-418.157
-260.839
-88.6188
-1317.99
-1113.75
-843.858
-525.879
-178.583
-1221.51
-1032.61
-782.629
-487.819
-165.671
-1932.27
-1630.22
-1233.44
-767.979
-260.701
-1884.1
-1590.34
-1203.69
-749.564
-254.453
-2578.98
-2169.8
-1638.08
-1018.75
-345.734
-2422.83
-2040.1
-1540.87
-958.297
-325.146
-3663.24
-3065.46
-2306.49
-1433.6
-487.104
-4134.72
-3435.61
-2576.54
-1603.84
-547.443
-4471.37
-3673.03
-2745.9
-1721.18
-596.283
-6398.41
-5148.56
-3844.18
-2464.5
-896.698
-6765.48
-5277.39
-3951.97
-2647.79
-1071.84
-7113.36
-5415.69
-4055.27
-2800.72
-1219.6
-4528.5
-3787.31
-2848.11
-1769.55
-601.072
-4933.36
-4101.65
-3074.85
-1911.23
-650.895
-4837.03
-3987.47
-2979.19
-1857.2
-637.052
-4319.25
-3514.36
-2617.97
-1647.32
-576.268
-3583.24
-2850.44
-2119.99
-1365.67
-502.774
-3071.53
-2386.81
-1772.43
-1170.34
-454.393
-19972
-14446.6
-4802.91
-3744.56
-2868.29
-3960.22
-3725.16
-13016.9
-14500.6
-11439.4
-13185.1
-7640.99
-11058.3
-5796.88
-6070.47
-4393.62
-20528.4
-11157.7
-4182.63
-6843.89
-9079.06
-6186.99
-6743.68
-5086.83
-3109.31
-4440.44
-5045.88
-5154.62
-19564.4
-12981.1
-12759.9
-9070.25
-8977.32
-9587.17
-4382.03
-5479.74
-6961.31
-14051.5
-11971.7
-9841.78
-8831.88
-7308.87
-9362.57
-6375.2
-4851.9
-3610.94
-1790.18
-4247.48
-3527.42
-2645.19
-1647.44
-562.917
-3347.92
-2806.04
-2113.28
-1313.64
-446.168
-2562.06
-2144.32
-1611.98
-1000.16
-339.225
-3550.25
-2982.41
-2248.46
-1397.05
-473.926
-3320.08
-2773.72
-2083.71
-1293.66
-439.309
-9397.56
-7690.59
-6203.94
-5416.84
-5133.84
-10651.1
-9046.6
-7195.12
-5617.29
-3231.9
-8190.77
-5723.5
-4250.1
-2900.42
-1225.43
-9683.71
-7889.52
-6092.13
-4385.87
-2070.29
-6429.22
-5124.95
-3753.78
-2327.67
-805.999
-8632.27
-6404.71
-4635.56
-2910.2
-1052.02
-5000.78
-4059.1
-2995.01
-1851.65
-633.052
-5215.95
-4219.9
-3107.69
-1920.87
-657.371
-3824.84
-3126.3
-2313.6
-1428.42
-485.987
-14264.4
-11228.6
-9128.85
-7808
-6836.46
-8613.17
-6540.82
-4903.97
-3305.38
-1414.71
-3598.56
-2919.77
-2160.39
-1344.49
-465.109
-5907.98
-4816.82
-3586.97
-2251.36
-788.2
-7606.52
-6101.24
-4555.76
-2935.77
-1095.52
-5318.98
-4328.32
-3229.51
-2039.85
-720.492
-5872.79
-4824.99
-3610.8
-2268.25
-789.241
-4464.12
-3682.88
-2752.15
-1715.31
-588.692
-2738.44
-2261.5
-1684.56
-1041.93
-353.946
-3943.36
-3282.78
-2459.66
-1525.34
-518.122
-4402.66
-3609.21
-2680.33
-1661.4
-567.958
-4523.1
-3729.01
-2782.4
-1730.28
-592.562
-13601
-11208.1
-9248.57
-8043.34
-6773.47
-9076.64
-6516.12
-4964.91
-3595.49
-1764.67
-9728.78
-7835.13
-6013.94
-4365.1
-2045.13
-7214.96
-5534.7
-4167.99
-2804.61
-1116.83
-7548.8
-6078.44
-4552.82
-2942.85
-1094.5
-7623.39
-5839.67
-4394.4
-2950.29
-1163.44
-3813.74
-3129.75
-2338.71
-1466.69
-509.478
-4854.44
-4034.1
-3022.09
-1877.11
-639.034
-6044.29
-4948.48
-3692.15
-2314.61
-803.926
-448.49
-1287.9
-2069.72
-2824.38
-3550.84
-4235.09
-2745.98
-7360.93
-6948.74
-2670.72
-9324.47
-7837.42
-9256.94
-10226.5
-2499.52
-1610.52
-5808.94
-3320.44
-10962.1
-7836.78
294.778
-2220.63
-6114.2
-5684.3
-2141.41
-7900.58
-6353.31
-7725.94
-8663.37
-2067.34
-937.985
-4996.1
-1697.74
-9019.85
-4680.97
1716.95
-1611.28
-4617.14
-4271.1
-1555.21
-6196.29
-3746.68
-6211.27
-6829.52
-1550.91
-856.158
-3517.05
-1777.89
-7134.07
-1775.46
1861.66
-1174.23
-3540.53
-3334.18
-1172.79
-4692.08
-2219.75
-5106.1
-5961.22
-1157.86
-904.534
-2558.99
-1809.43
-6225.12
-291.839
1401.45
-939.663
-2976.67
-2844.7
-978.722
-3727.42
-1817.52
-4540.48
-5752.73
-908.104
-991.967
-1819.35
-1746.85
-5403.37
-79.6264
187.014
-823.943
-2635.02
-2595.54
-880.295
-3430.31
-2098.29
-4179.93
-5483.79
-694.188
-778.549
-1482.39
-1705.47
-5321.73
-949.844
-487.956
-1397.7
-3409.11
-5071.73
-1965.25
-5514.6
-9667.55
-7408.64
-10659.4
-993.181
-682.322
-3855.32
-2317.92
-1083.57
-9157.19
-4731.87
-1297.91
-3172.27
-4444.11
-1703.11
-5086.41
-8716.92
-6668.22
-9043.55
-1013.43
-596.098
-3982.14
-2176.79
-263.286
-8958.47
-3510.77
-1136.81
-2788.18
-3622.24
-1361.28
-4615.06
-7751.31
-5648.05
-7909.71
-894.043
-683.702
-3383.09
-2256.23
-496.953
-7185.14
-3330.07
-977.31
-2502.62
-2986
-1097.96
-4286.97
-6991.66
-5000.44
-7140.6
-814.803
-684.735
-3106.84
-2326.41
-333.467
-6623.37
-3325.58
-879.223
-2244.19
-2637.6
-954.955
-3874.39
-6382.64
-4541.24
-6760.59
-759.019
-738.104
-2806.51
-2510.69
-496.604
-6324.25
-3374.6
-814.15
-1997.86
-2437.62
-875.308
-3568.13
-6290.92
-4203.82
-6525.2
-787.099
-860.862
-2494.62
-2390.73
-759.716
-6463.87
-3741.76
6302.74
7958.47
16453.8
24088.7
24540.2
42263.7
18801.4
47850
15298.1
33587.7
22907
34795.7
20503
26994.8
7753.51
8802.76
15560.8
17831.3
20018.4
19856.1
15720.5
19387.1
23135.2
20733.5
5226.06
3993.1
6406.83
4348.34
13155.5
10553.3
22458.9
16321.3
17312.9
18058.9
19314.5
18561.7
6880.3
5312.18
40912.1
54761.7
26450.7
32463
54861.9
71210.5
28377.3
32494.3
30409.5
42942.9
26574.1
35191.2
15608.7
25097.1
2857.53
982.721
2925.37
1069.3
9105.22
3684.2
12490.2
4609.58
8941.87
3418.81
9412.65
3024.08
16020
5106.74
20654.5
6982.4
24996.7
12473.4
22883.5
13557.1
23320.5
15094.2
20519.1
15366.8
18096
10767.6
18132.4
9299.25
23619.2
15043.4
23677.2
15167
21684.5
16231.8
21947.9
16284.9
19533.6
12387.3
20228.5
12679.2
18540.1
8080.73
8619.48
10568.7
18614
8855.13
7566.51
10777.1
19625.2
8024.26
9735.03
10607.1
20596.7
8209.99
10570.6
11058.8
3686.93
3990.76
1273.79
2480.01
11385.2
12062.7
4441.51
8003.12
14646.2
16218.1
7194.36
12293.3
12300
833.956
13923.7
17428.3
9603.15
484.274
7293.54
12649.2
20510.2
14666.8
10311.6
12625.8
11183
9780.31
15406.3
3397.91
2742.58
1929.77
1934.47
10487.6
8737.11
6453.86
6098.8
12992.7
10811.7
8343.88
7451.77
5760.22
7402.5
12004.3
12514.7
14427.5
13100.9
16301.6
14084.2
11318.3
9537.06
9215.11
9529.11
12213.5
9379.37
11216.9
7922.58
9800.4
6556.03
11619.4
7530.16
10395
4538.42
8993.34
9577.22
12739.3
16419.5
14041.5
20310
7204.59
7840.79
9243.72
2589.67
8041.68
15350.4
7642.77
16514.3
13916.4
25110.8
14164
26713.5
6142.73
13287.3
5608.02
14215.9
8529.77
6291.74
11970.1
4614.94
8669.39
1345.66
10377.1
431.743
8235.58
9574.98
12558.2
5743.13
6843.14
11339.1
11143.4
7570.87
2107.07
1850.74
1642.79
1564.47
1429.6
1269.04
7022.38
5609.88
4745.82
4586.88
3578.18
3028.8
8427.01
7109.03
6494.37
5458.02
4323.9
4028.31
6388.73
5498.06
5306.97
10809.2
7953.75
6583.92
10362.4
7407.52
5874.4
10839.4
8319.52
7124.2
6988.55
4460.38
3402.18
15539.2
13100
11109.9
10146.3
8211.37
6626.62
9193.86
6918.75
5335.22
7868.99
5496.62
4059.93
8337.8
4529.29
2445.88
10587.2
14304.9
8410.82
10832
11546.9
16902.2
10350.9
14994.4
61.3664
618.166
-435.812
61.9002
2973.14
3401.12
1249.86
751.01
688.589
2388.09
9500.64
13814.1
6647.05
3721.95
10140.4
10073.6
15762.8
17371.5
-619.493
-4238.5
7678.85
7227.97
7312.68
5634.54
887.846
485.235
578.443
249.895
2013.37
163.666
-288.461
-836.34
9243.5
2312.02
6312.05
1611.31
9152.52
2765.4
11076.6
3518.95
9001.28
12018.3
8299.64
11702.2
14612.1
15345.4
13918.2
14500.3
5642
9312.38
6532.03
9264.36
8799.62
11259.3
9697.51
11356.8
14495.6
14223.7
15168.9
14264.5
5690.96
8997.49
6185.28
9145.41
-279.74
1154.82
7164.33
4268.82
-824.261
750.437
6637.02
3759.7
181.196
1423.07
7315.81
4659.95
621.659
1684.38
7334.71
4809.97
-675.282
-767.189
134.633
-20.2239
-2938.82
-2949.62
-266.484
-447.308
-695.099
-2050.24
1517.48
835.32
-10245.1
-9742.85
-5563.86
-4320.84
-566.593
-10637.5
-10764.2
-4277.87
-6335.15
-977.258
10481.4
8113.27
7041.34
6451.03
3716.46
-763.73
-679.891
-82.9262
-7.16845
-2510.52
-2381.93
-195.058
6.04209
-2567.72
-2987.37
502.033
739.175
-5113.93
-2199.55
-8025.36
-4882.28
-3570.47
-2625.79
-4058
-3426.91
214.706
1039.41
3845.94
2416.39
1072.69
-949.237
936.666
-755.513
1497.6
215.11
1729.87
1940.1
5173.43
4682.97
9848.78
5909.77
8177.41
8138.9
12397.6
9990.59
7590.65
4394.07
3740.72
3669.15
11619.2
5096.41
12775.4
5714.48
13828
10199.4
14753.4
10951.7
9239.76
3556.42
10350.7
4130.47
5757.78
4430.04
4162.87
6130.7
3655.13
4050.03
3529.22
5677.86
6675.6
4349.59
4715.68
7048.71
8175.38
4724.39
6022.01
7268.72
-661.45
-670.26
-742.766
-61.8157
-250.313
-272.012
-2498.77
-2589.57
-2561.94
-223.562
-714.647
-710.919
-3222.79
-3482.77
-3523.86
429.054
-713.068
-942.083
-1108.77
-931.29
-628.596
-3435.71
-3457.45
-3188.47
-2789.71
-3083.41
-3003.18
-3462.4
-3613.25
-3481.28
1073.98
-327.368
-424.706
3518.86
2021.32
1102.45
-832.432
-1828.43
-2355.98
-844.084
-2082.84
-2615.29
-408.676
-1723.49
-2094.49
1923.3
-444.892
-719.134
-25.1514
-29.7585
-34.5019
-50.952
-232.618
-123.288
-97.7834
-88.3317
-20.0464
-65.027
-147.772
-215.779
-402.264
-240.434
-264.297
-265.261
188.287
-21.5988
-213.218
-388.564
-153.339
-190.978
-233.542
-252.289
-30.9195