/*--------------------------------*- C++ -*----------------------------------*\
| =========                 |                                                 |
| \\      /  F ield         | OpenFOAM: The Open Source CFD Toolbox           |
|  \\    /   O peration     | Version:  2306                                  |
|   \\  /    A nd           | Website:  www.openfoam.com                      |
|    \\/     M anipulation  |                                                 |
\*---------------------------------------------------------------------------*/
FoamFile
{
    version     2.0;
    format      ascii;
    arch        "LSB;label=32;scalar=64";
    class       volVectorField;
    location    "1.8";
    object      flux;
}
// * * * * * * * * * * * * * * * * * * * * * * * * * * * * * * * * * * * * * //

dimensions      [0 1 -1 1 0 0 0];

internalField   nonuniform List<vector> 
5712
(
(-0.271834 0.477899 0.297997)
(-0.347456 0.275625 0.978623)
(-0.644718 0.773926 0.236751)
(-0.942127 0.50791 1.00332)
(-0.961333 0.845104 0.177565)
(-1.65892 0.626115 1.03691)
(-0.738065 1.32492 0.279757)
(-1.87986 1.6453 1.596)
(-0.600781 1.74287 0.343627)
(-1.32005 2.13581 2.19381)
(-0.898567 1.128 0.341362)
(-1.36718 0.981016 1.59931)
(-0.80591 0.716304 0.329568)
(-1.05755 0.56846 1.32817)
(-0.354556 0.359853 0.342569)
(-0.405627 0.243532 1.18721)
(-0.607889 0.799535 0.207338)
(-0.696655 0.814846 0.12879)
(-0.78441 0.690008 0.554365)
(-0.777842 0.808961 0.329648)
(-0.61648 1.08016 0.202858)
(-0.761013 0.960977 0.109541)
(-0.908205 1.24932 0.605602)
(-0.814266 1.00764 0.300802)
(-0.221633 0.336535 0.227207)
(-0.167169 0.241451 0.165376)
(-0.275538 0.189415 0.728183)
(-0.185805 0.140931 0.514062)
(-0.514045 0.401875 0.171893)
(-0.41226 0.326847 0.124424)
(-0.876773 0.244478 0.716119)
(-0.636269 0.19809 0.521864)
(-0.678817 0.735266 0.403334)
(-0.706167 0.760995 0.171)
(-0.754964 0.748931 0.34889)
(-0.722548 0.628384 0.155837)
(-0.266863 0.580377 0.161059)
(-0.207928 0.455927 0.377019)
(-1.60438 0.457344 1.3882)
(-2.14761 0.520063 0.375783)
(-1.03684 0.736557 0.497564)
(-1.27267 0.733745 0.167623)
(-2.15478 1.54916 1.78576)
(-2.79635 1.60225 0.484159)
(-1.11447 1.09473 0.464826)
(-1.27597 1.12868 0.159748)
(-1.19085 0.628169 0.993018)
(-1.68191 0.529661 0.307862)
(-1.03994 0.682191 0.509962)
(-1.37767 0.486019 0.177543)
(-0.609537 0.317288 0.864809)
(-0.981474 0.326386 0.274708)
(-0.117651 0.261647 0.250393)
(-0.0397236 0.370331 0.124149)
(-0.12375 0.137016 0.363533)
(-0.0446687 0.16633 0.142025)
(-0.355044 0.358365 0.271114)
(-0.143534 0.49573 0.146445)
(-0.486108 0.213808 0.354253)
(-0.179131 0.250727 0.136372)
(-0.34712 0.395886 0.342544)
(-0.132973 0.671857 0.1955)
(-0.367453 0.274846 0.305415)
(-0.117966 0.452719 0.133166)
(-0.625348 0.104568 0.449067)
(-0.199162 0.268713 0.161748)
(-0.806447 0.0870585 0.154298)
(-0.272354 0.200294 0.0539833)
(-0.98153 0.717013 0.509679)
(-0.488505 0.886642 0.35488)
(-0.898618 0.742238 0.314224)
(-0.532441 0.884369 0.230505)
(-0.918002 0.876274 0.564731)
(-0.593909 0.883882 0.465188)
(-0.807596 0.894836 0.308153)
(-0.606003 0.87406 0.266697)
(-0.708615 0.633145 0.299557)
(-0.421236 0.859149 0.203814)
(-0.709262 0.64874 0.424877)
(-0.362555 0.847658 0.286371)
(-0.92732 0.732155 0.206331)
(-0.591703 0.879128 0.152045)
(-0.92944 0.732475 0.103926)
(-0.59686 0.877533 0.0854575)
(-0.853248 0.903673 0.197989)
(-0.640814 0.86378 0.171037)
(-0.863564 0.901333 0.101361)
(-0.643285 0.85602 0.0979963)
(-0.765096 0.585691 0.199081)
(-0.485514 0.863223 0.131336)
(-0.792329 0.565803 0.101277)
(-0.49719 0.866565 0.065299)
(-0.725009 0.719181 0.268938)
(-0.314986 0.84822 0.146569)
(-0.33594 0.90803 0.202939)
(-0.410539 1.2728 0.243615)
(-0.727904 0.761895 0.370068)
(-0.344766 0.981489 0.263537)
(-0.294005 0.900113 0.295485)
(-0.417377 1.38495 0.418144)
(-0.767524 0.681793 0.177151)
(-0.313111 0.745697 0.0841738)
(-0.380075 0.911408 0.119285)
(-0.412766 1.2224 0.139103)
(-0.805487 0.674608 0.0874375)
(-0.320486 0.697348 0.0364804)
(-0.413034 0.921166 0.0512498)
(-0.430758 1.21261 0.0514718)
(-0.152407 0.219308 0.333357)
(-0.16664 0.288153 0.597021)
(-0.0513735 0.560385 0.225502)
(-0.101388 0.983065 0.665744)
(-0.445338 0.271201 0.389754)
(-0.471066 0.309471 0.584007)
(-0.172987 0.719912 0.276871)
(-0.309202 1.1152 0.69598)
(-0.57042 0.336477 0.441415)
(-0.632694 0.340262 0.527911)
(-0.277675 0.910306 0.355505)
(-0.473391 1.24032 0.677589)
(-0.49189 0.988585 0.510991)
(-0.0379994 1.05538 0.602421)
(-0.550604 0.842404 0.390648)
(-0.684463 0.819237 0.377867)
(-0.374489 1.19855 0.411863)
(-0.0242165 1.06091 0.602685)
(-0.294965 1.00672 0.56437)
(-0.497847 0.859089 0.560894)
(-0.804753 0.74888 0.578559)
(-0.567399 1.37302 0.831484)
(-0.40451 0.96768 0.490187)
(-0.493389 0.95949 0.383134)
(-0.434248 0.859925 0.335731)
(-0.377395 0.862285 0.376819)
(-0.593316 1.56453 0.586343)
(-0.145593 0.0842329 0.692449)
(-0.119378 0.101314 0.619428)
(-0.0834393 0.181172 0.802163)
(-0.0826259 0.416999 0.773008)
(-0.409467 0.119336 0.634132)
(-0.343158 0.135602 0.588596)
(-0.248507 0.249215 0.791561)
(-0.235963 0.465406 0.756337)
(-0.510034 0.177245 0.548595)
(-0.427913 0.150264 0.536067)
(-0.324463 0.337721 0.741544)
(-0.290352 0.531198 0.728145)
(-0.232305 1.04694 0.44115)
(-0.297167 1.02858 0.347691)
(-0.482 0.948087 0.417646)
(-0.501032 0.927023 0.366155)
(-0.570265 0.818876 0.459218)
(-0.518337 0.744621 0.414173)
(-0.643747 0.622826 0.496521)
(-0.558195 0.54847 0.479581)
(-0.441355 0.443013 0.680624)
(-0.371655 0.620356 0.700035)
(-0.365804 0.954991 0.411808)
(-0.381782 0.917583 0.359196)
(-0.484031 0.96676 0.39851)
(-0.376867 0.946851 0.387719)
(-0.442876 0.845026 0.414558)
(-0.317584 0.788673 0.444482)
(-0.385276 0.703926 0.467979)
(-0.261655 0.629303 0.530377)
(-0.452935 0.471538 0.609146)
(-0.295195 0.624589 0.710091)
(-0.413228 0.95998 0.341897)
(-0.18668 1.07957 0.268841)
(-0.356164 0.957945 0.233826)
(-0.382625 1.10726 0.296347)
(-0.506594 0.92439 0.457057)
(-0.656898 0.955021 0.554233)
(-0.557876 0.903174 0.316046)
(-0.809599 0.963093 0.498221)
(-0.284409 0.877044 0.200028)
(-0.312679 0.891631 0.261522)
(-0.36679 0.869688 0.299145)
(-0.109975 0.865302 0.247334)
(-0.317936 0.95072 0.0575987)
(-0.609882 1.11236 0.196278)
(-0.301901 0.946695 0.0290796)
(-0.655041 1.1117 0.0701581)
(-0.55262 0.877213 0.161109)
(-1.00019 0.975637 0.334005)
(-0.562366 0.870292 0.0587958)
(-1.06281 0.973754 0.115248)
(-0.241641 0.880442 0.0291134)
(-0.526001 0.889616 0.167728)
(-0.220109 0.880408 0.015499)
(-0.561693 0.889227 0.0585826)
(-0.334771 0.741144 0.197503)
(-0.249984 0.704414 0.200405)
(-0.467811 0.478844 0.224615)
(-0.182802 0.533729 0.141025)
(-0.34238 0.736315 0.31345)
(-0.0605039 0.686221 0.25204)
(-0.406706 0.471829 0.368527)
(-0.0238938 0.536775 0.256342)
(-0.32243 0.751275 0.0478808)
(-0.377583 0.702096 0.10981)
(-0.490426 0.489157 0.111703)
(-0.225467 0.535426 0.0645244)
(-0.267303 0.754307 0.0616758)
(-0.44621 0.694939 0.0796246)
(-0.434565 0.504321 0.0868738)
(-0.296535 0.535562 0.0657737)
(-0.0941482 0.0680079 0.494723)
(-0.0824899 0.0454843 0.3012)
(-0.072931 0.0313121 0.0951359)
(-0.067778 0.0391243 0.559296)
(-0.0618255 0.0265182 0.321858)
(-0.0548134 0.0246736 0.10552)
(-0.277865 0.0947906 0.474733)
(-0.225357 0.055718 0.298102)
(-0.19316 0.0418187 0.100916)
(-0.17974 0.076861 0.5502)
(-0.142683 0.0612303 0.322202)
(-0.122527 0.0523741 0.105465)
(-0.337751 0.109243 0.436714)
(-0.288206 0.0893247 0.273935)
(-0.264828 0.0889418 0.0902136)
(-0.215859 0.134872 0.53636)
(-0.173587 0.109249 0.323523)
(-0.162922 0.09758 0.108192)
(-0.25891 0.974882 0.230141)
(-0.226059 0.872138 0.126714)
(-0.219418 0.801422 0.034987)
(-0.434949 0.900515 0.298378)
(-0.325535 0.827608 0.197056)
(-0.271923 0.770717 0.0683056)
(-0.413388 0.648238 0.35835)
(-0.300651 0.596315 0.247083)
(-0.241244 0.567671 0.0852014)
(-0.433194 0.443434 0.41592)
(-0.337362 0.38012 0.269986)
(-0.291233 0.353038 0.0897716)
(-0.274212 0.205889 0.530798)
(-0.177939 0.14987 0.332016)
(-0.137327 0.126087 0.116023)
(-0.625601 0.883569 0.271611)
(-0.534565 0.809875 0.154903)
(-0.458291 0.749043 0.0498833)
(-0.405274 0.911295 0.283353)
(-0.332723 0.821945 0.204416)
(-0.272483 0.754011 0.07727)
(-0.363648 0.678277 0.338502)
(-0.278194 0.575956 0.249951)
(-0.218334 0.518269 0.092029)
(-0.308368 0.444595 0.422007)
(-0.219066 0.351072 0.296516)
(-0.165056 0.312775 0.106294)
(-0.322047 0.218795 0.537285)
(-0.177141 0.148975 0.336647)
(-0.0977546 0.11861 0.119716)
(-0.419804 1.09334 0.0119601)
(-0.567525 1.06785 0.0810438)
(-0.332918 1.19262 0.114674)
(-0.428994 1.06829 0.165398)
(-0.454727 1.22754 0.0889672)
(-0.666604 1.06834 0.101818)
(-0.407022 1.48445 0.223106)
(-0.590799 1.1269 0.211309)
(-0.00104242 0.845892 0.0241469)
(-0.028679 0.856921 0.0410261)
(0.0207126 0.83602 0.0257769)
(-0.0040002 0.774789 0.0427222)
(-0.118542 0.949185 0.0194364)
(-0.13334 0.892228 0.0564111)
(-0.0493163 0.933129 0.0347256)
(-0.0263542 0.796317 0.0739733)
(-0.0276297 0.924013 0.128842)
(-0.095818 0.915705 0.0629762)
(-0.378122 0.850569 0.163065)
(-0.550927 0.907983 0.0943541)
(-0.266306 1.13022 0.0864281)
(-0.147771 1.01717 0.15088)
(-0.400924 1.12647 0.136682)
(-0.398081 1.14452 0.0355384)
(-0.620679 1.22515 0.247001)
(-0.683842 1.26796 0.0588284)
(0.0247685 0.937707 -0.0797801)
(0.167907 0.973697 0.0258712)
(-0.304977 0.839339 0.0700197)
(-0.287229 0.815114 0.0510648)
(-0.290361 1.01984 0.04771)
(-0.223822 1.04684 0.0427736)
(-0.040724 0.66168 0.389736)
(-0.0214861 0.357886 0.176045)
(-0.0268968 0.619548 0.106314)
(-0.0110848 0.396015 0.0651785)
(-0.0783962 0.671647 0.395847)
(-0.00663117 0.361161 0.182853)
(0.0145405 0.618139 0.134103)
(0.0346173 0.393651 0.0826295)
(-0.369547 0.662691 0.390735)
(-0.0937674 0.363035 0.196581)
(-0.251094 0.616652 0.194114)
(-0.0644267 0.410199 0.134718)
(-0.364126 0.600269 0.139006)
(-0.110439 0.429109 0.0991235)
(-0.440834 0.607798 0.0666752)
(-0.141007 0.425607 0.063739)
(-0.356209 0.852327 0.508258)
(-0.478735 0.727071 0.451177)
(-0.328984 0.849086 0.238841)
(-0.466568 0.726996 0.247543)
(-0.575863 0.942073 0.550557)
(-0.607296 0.849426 0.516215)
(-0.549149 0.953275 0.271324)
(-0.574518 0.842104 0.273228)
(-0.225372 0.830928 0.210689)
(-0.374415 0.606395 0.216529)
(-0.260578 0.865115 0.434091)
(-0.372217 0.59766 0.361806)
(-0.34901 0.868984 0.141752)
(-0.449192 0.724109 0.148511)
(-0.384894 0.880489 0.0780604)
(-0.453489 0.71612 0.0894924)
(-0.572085 0.979003 0.16651)
(-0.563943 0.835866 0.165464)
(-0.598872 0.980252 0.0903004)
(-0.565962 0.825446 0.0971589)
(-0.227456 0.823892 0.122452)
(-0.362057 0.608657 0.13242)
(-0.247445 0.822 0.0674541)
(-0.368433 0.60504 0.084275)
(0.00896648 0.545017 0.186471)
(-0.0495869 0.364652 0.128799)
(-0.291599 0.48025 0.185543)
(-0.178306 0.310143 0.129748)
(0.0312468 0.507158 0.291143)
(-0.0331778 0.326841 0.169547)
(-0.270135 0.461076 0.27674)
(-0.157278 0.289969 0.179588)
(-0.00952316 0.558929 0.111564)
(-0.0602255 0.387381 0.0931152)
(-0.298007 0.488291 0.117177)
(-0.194549 0.319582 0.0836635)
(-0.0275039 0.559931 0.0612189)
(-0.070981 0.401214 0.0577904)
(-0.299232 0.487169 0.0742428)
(-0.201193 0.321915 0.0489442)
(0.0284293 0.104037 0.459327)
(0.0326179 0.0544734 0.314488)
(-0.00617598 0.191325 0.228605)
(0.000124345 0.10369 0.228906)
(0.118702 0.111063 0.457552)
(0.119672 0.0668726 0.323163)
(0.0101746 0.203887 0.229713)
(0.017245 0.124113 0.227866)
(0.0269239 0.136706 0.476002)
(0.0820141 0.100981 0.338332)
(-0.0635212 0.225818 0.233003)
(-0.0366274 0.162352 0.222023)
(0.410687 0.526178 0.557572)
(0.386662 0.815269 0.605913)
(0.223569 0.379785 0.505485)
(0.173061 0.36465 0.33606)
(0.0207808 0.261107 0.188207)
(0.422977 0.79731 0.57414)
(0.431793 0.554944 0.527203)
(0.172698 0.325953 0.486257)
(0.255771 0.327746 0.398948)
(0.0370441 0.21529 0.2536)
(-0.414559 0.830679 0.538048)
(-0.322998 0.653456 0.483027)
(-0.283718 0.519506 0.383745)
(-0.263304 0.404857 0.29338)
(-0.155926 0.254533 0.180656)
(0.0325609 0.0292623 0.262184)
(0.029646 0.022044 0.229594)
(0.00221014 0.0600297 0.242315)
(-0.00140253 0.0445482 0.27312)
(0.103109 0.041404 0.272284)
(0.0994242 0.0285979 0.227298)
(0.00699299 0.0843372 0.245652)
(-0.00191014 0.0672715 0.270686)
(0.104171 0.0717945 0.287147)
(0.123433 0.0554158 0.229199)
(-0.0233341 0.122168 0.249612)
(-0.0344166 0.0995918 0.268904)
(0.205189 0.807606 0.433055)
(0.090668 0.778339 0.306259)
(0.324325 0.546822 0.400213)
(0.200457 0.52158 0.278044)
(0.145123 0.355541 0.312312)
(0.108585 0.356235 0.251158)
(0.164689 0.299549 0.289444)
(0.141101 0.273469 0.245799)
(-0.012445 0.184253 0.232642)
(-0.0477253 0.151141 0.268001)
(-0.152138 0.758688 0.360061)
(-0.0958417 0.687299 0.312782)
(-0.041808 0.587515 0.315683)
(0.0398015 0.513475 0.27511)
(-0.0383385 0.457279 0.267149)
(0.0308857 0.403932 0.241328)
(-0.0636626 0.348296 0.23321)
(-0.0111935 0.312576 0.230054)
(-0.0762115 0.224762 0.18272)
(-0.0863674 0.220519 0.254734)
(-0.207738 0.603143 0.282178)
(-0.189035 0.485896 0.190904)
(-0.395713 0.607349 0.187391)
(-0.237981 0.474896 0.11248)
(-0.325866 0.726076 0.371522)
(-0.326333 0.600871 0.286493)
(-0.494511 0.725161 0.257906)
(-0.399627 0.593409 0.208092)
(-0.30857 0.50805 0.15171)
(-0.179964 0.410027 0.0909375)
(-0.152749 0.492604 0.220244)
(-0.150843 0.411017 0.162121)
(-0.466792 0.607857 0.188773)
(-0.205211 0.467931 0.089344)
(-0.513421 0.604241 0.0684302)
(-0.230149 0.467309 0.0392879)
(-0.551604 0.722768 0.201157)
(-0.407891 0.6052 0.14583)
(-0.588628 0.716028 0.069542)
(-0.437629 0.603608 0.0577134)
(-0.375141 0.517402 0.162293)
(-0.145964 0.403922 0.0721194)
(-0.420346 0.516575 0.0633296)
(-0.16945 0.409287 0.0331334)
(-0.238915 0.396097 0.124547)
(-0.186675 0.333398 0.113582)
(-0.178842 0.264615 0.107688)
(-0.264422 0.276323 0.156832)
(-0.15299 0.381517 0.173484)
(-0.171124 0.325877 0.162521)
(-0.152209 0.252529 0.137035)
(-0.245038 0.26175 0.200229)
(-0.276461 0.412974 0.126874)
(-0.183909 0.340042 0.0812588)
(-0.202399 0.271367 0.0785551)
(-0.303842 0.292351 0.106917)
(-0.337503 0.422715 0.0377582)
(-0.199843 0.340005 0.0179832)
(-0.256104 0.281937 0.00724643)
(-0.313576 0.296565 0.0192896)
(0.0294498 0.0687083 0.157927)
(0.0309665 0.0603083 0.0659564)
(0.0345987 0.0498921 0.0194939)
(0.00144639 0.295479 0.180323)
(0.0108989 0.158303 0.0469346)
(0.0121295 0.129397 0.012522)
(0.107029 0.066901 0.161064)
(0.112035 0.0657911 0.071735)
(0.111344 0.0583596 0.0220505)
(0.00953759 0.321446 0.180761)
(0.0311882 0.187802 0.049064)
(0.0311022 0.159132 0.0137448)
(0.136129 0.0921062 0.152683)
(0.149474 0.102941 0.07215)
(0.152344 0.105368 0.0187465)
(-0.019908 0.356807 0.178961)
(0.0305294 0.236058 0.0503332)
(0.040791 0.210049 0.0118651)
(0.0471671 0.727522 0.1902)
(0.0399249 0.674406 0.0974357)
(0.0278083 0.636971 0.022359)
(0.144379 0.496739 0.16876)
(0.146381 0.477484 0.0818705)
(0.135773 0.465495 0.0196024)
(0.117851 0.361669 0.162554)
(0.131624 0.354186 0.0780032)
(0.128823 0.352318 0.0212094)
(0.14606 0.309177 0.158559)
(0.154672 0.296822 0.0742522)
(0.149995 0.288453 0.0159312)
(-0.0476995 0.407942 0.179539)
(0.0139296 0.292564 0.0498505)
(0.018365 0.263882 0.00757627)
(-0.139536 0.621497 0.239258)
(-0.0799053 0.567188 0.121272)
(-0.043051 0.531053 0.0329499)
(0.0371292 0.461722 0.212146)
(0.0793714 0.425329 0.105567)
(0.101854 0.404736 0.0290614)
(0.0367612 0.382972 0.190161)
(0.0900759 0.351956 0.0938969)
(0.113174 0.334576 0.0273496)
(0.017272 0.366793 0.17741)
(0.0744713 0.322968 0.0760832)
(0.0907916 0.297716 0.0188433)
(-0.0839986 0.497039 0.194962)
(0.0191839 0.330508 0.0469614)
(0.0312646 0.295983 0.0115453)
(0.00121806 0.19828 0.0678926)
(0.00148754 0.124322 0.024176)
(0.00178915 0.0865495 0.00505532)
(0.00266646 0.0694592 -0.00643842)
(0.0104068 0.223065 0.0283253)
(0.00571447 0.134989 0.0106206)
(0.00465135 0.0912879 0.00296603)
(0.00436543 0.0711743 -0.00119957)
(0.00076324 0.199311 0.07189)
(0.00291075 0.124216 0.0264572)
(0.00659917 0.0867488 0.00702691)
(0.00987825 0.0699518 -0.00379082)
(0.0169888 0.227933 0.0359717)
(0.0104778 0.137782 0.014683)
(0.01165 0.0931856 0.00708489)
(0.0120717 0.0721646 0.00325862)
(-0.00800246 0.19883 0.0770919)
(0.00112019 0.122943 0.0293527)
(0.00950261 0.0871223 0.0104975)
(0.0177543 0.0699489 0.000409347)
(0.00654066 0.232584 0.0613634)
(0.00846826 0.139553 0.0280121)
(0.0105678 0.0954628 0.0104731)
(0.0117038 0.0725976 0.0022093)
(0.00151022 0.250331 0.0465015)
(0.00503013 0.14776 0.0255117)
(0.00488336 0.097313 0.00823278)
(0.00468648 0.0749343 -0.000899711)
(-0.00812872 0.257807 0.043022)
(-0.000348361 0.153486 0.0274405)
(0.00428117 0.100262 0.0152138)
(0.0070949 0.077571 0.00863585)
(-0.0355532 0.211973 0.0635885)
(-0.00740786 0.130881 0.027745)
(0.00294329 0.0906846 0.00814471)
(0.0102131 0.0709903 -0.00622892)
(-0.0554477 0.173558 0.0541181)
(-0.0129612 0.114862 0.0233158)
(-0.00070103 0.0832096 0.0100295)
(0.0178816 0.0681502 -0.00601364)
(-0.0242792 0.186053 0.0751913)
(-0.00304016 0.118576 0.0288442)
(0.00619364 0.0847148 0.00939322)
(0.0156036 0.0663802 -0.0040451)
(-0.0453733 0.159828 0.0677445)
(-0.00980943 0.108278 0.0261122)
(-0.00138205 0.0799092 0.0104156)
(0.015499 0.0655034 -0.00977782)
(-0.0380885 0.229395 0.0507904)
(-0.00888774 0.140197 0.0255615)
(0.00410157 0.0948602 0.00973166)
(0.013255 0.0739747 -0.00212682)
(-0.0623252 0.181803 0.0413903)
(-0.0154539 0.119685 0.0204105)
(-0.000833226 0.0853113 0.0106349)
(0.0211161 0.0702209 6.34258e-05)
(-0.0426215 0.239248 0.0371886)
(-0.0117323 0.146554 0.02222)
(0.0038539 0.0978898 0.0126819)
(0.0159592 0.0762401 0.00747955)
(-0.0672368 0.185457 0.0283301)
(-0.0176973 0.123153 0.0170323)
(-0.00163632 0.0871265 0.0110358)
(0.0220689 0.0715349 0.00624853)
(0.000519411 0.149726 0.0859356)
(0.000892996 0.106733 0.0291065)
(0.00158593 0.0789188 0.00519129)
(0.00338483 0.0659591 -0.0129151)
(0.00167693 0.0972557 0.0842704)
(0.00124628 0.0857117 0.0267126)
(0.000904821 0.0696145 0.00755666)
(0.00308006 0.0620242 -0.0174761)
(0.00324979 0.150186 0.0858645)
(0.00306218 0.106238 0.0295208)
(0.00503409 0.0788241 0.00590876)
(0.0092376 0.0658279 -0.0123158)
(0.00693132 0.1016 0.0817094)
(0.00420615 0.086901 0.0259973)
(0.00289942 0.0700411 0.00782607)
(0.0083647 0.0623727 -0.016969)
(-0.0146008 0.153871 0.0842415)
(-0.00180101 0.106208 0.0296066)
(0.00531316 0.0793307 0.00881175)
(0.0156426 0.0662563 -0.00847505)
(-0.0060308 0.114785 0.0764174)
(0.00123406 0.0907915 0.0246194)
(0.00369632 0.0716081 0.00947559)
(0.014731 0.0638908 -0.0136895)
(-0.00201151 0.152102 0.0739472)
(0.00463385 0.103647 0.0273615)
(0.00812235 0.0779701 0.0118991)
(0.0157759 0.067595 -0.000377999)
(0.00020066 0.126163 0.0838618)
(0.00377703 0.093526 0.0275608)
(0.003089 0.0736511 0.0131641)
(0.0148475 0.0636581 -0.0159093)
(-0.0387156 0.141495 0.0658072)
(-0.00743594 0.100626 0.0243981)
(0.000126687 0.0761892 0.0118016)
(0.0206419 0.0645475 -0.00360597)
(0.00341847 0.044524 0.0661029)
(0.00173935 0.0686771 0.0187607)
(0.00118945 0.0554971 0.00668558)
(0.00238011 0.0168247 -0.0116297)
(0.00628593 -0.0142201 0.0261585)
(0.0025279 0.0592229 0.00680696)
(0.00129019 0.0498101 0.00179344)
(0.00112957 0.017692 -0.00232556)
(0.0071267 0.0539984 0.0685726)
(0.00414548 0.0718196 0.0200844)
(0.00252785 0.0567741 0.00736763)
(0.00606654 0.0177507 -0.01106)
(0.0160932 -0.00257271 0.0273795)
(0.00672735 0.0627147 0.0073836)
(0.00321385 0.0509071 0.00226522)
(0.00288436 0.0180698 -0.00182656)
(0.00462502 0.0718339 0.0702496)
(0.00463666 0.0773947 0.0215861)
(0.00345966 0.058676 0.00896684)
(0.00994928 0.0176947 -0.00960666)
(0.020517 0.0172814 0.0280913)
(0.00947424 0.0686258 0.00805011)
(0.00484484 0.0525003 0.00286639)
(0.0045359 0.0182746 -0.00123081)
(-0.00258995 0.0937607 0.0635483)
(0.00425346 0.0840565 0.0203761)
(0.00435452 0.0615426 0.0102423)
(0.0138689 0.0192066 -0.00743569)
(0.0164961 0.0386041 0.0274355)
(0.0102596 0.0752169 0.0083345)
(0.00573561 0.0548255 0.00390137)
(0.00574089 0.0190588 -0.000164554)
(-0.0195724 0.108429 0.0583552)
(0.000672328 0.0901938 0.0202634)
(0.00177736 0.0651078 0.0109337)
(0.0130929 0.0223313 -0.00411988)
(0.00552051 0.0447721 0.0247496)
(0.00884953 0.0802633 0.00880564)
(0.00517219 0.0569949 0.00525467)
(0.00580927 0.0197458 0.00126204)
(-0.0449219 0.115807 0.0404637)
(-0.00459069 0.0970076 0.0161317)
(0.00106316 0.0666844 0.00772571)
(0.0150237 0.021272 -0.00132446)
(-0.014119 0.033382 0.0233062)
(0.00216721 0.0857484 0.0113332)
(0.0031129 0.0610547 0.00666065)
(0.00528195 0.0209615 0.00340745)
(-0.034323 0.1129 0.0468447)
(-0.00124751 0.0939916 0.0165269)
(0.00149833 0.0654911 0.00820529)
(0.0139658 0.0212773 -0.00307746)
(-0.00783704 0.0316463 0.0235996)
(0.00516587 0.083205 0.00996694)
(0.0042983 0.058995 0.00599858)
(0.00579109 0.0202415 0.00236983)
(-0.0546273 0.116801 0.0325042)
(-0.00862128 0.0991493 0.0154338)
(-0.000207801 0.0675699 0.00823133)
(0.0163263 0.0198591 0.00119975)
(-0.0196849 0.0312981 0.0207489)
(-0.000734695 0.0879292 0.011754)
(0.0019628 0.0624054 0.00713478)
(0.00491855 0.0210884 0.00441823)
(-0.0618934 0.119274 0.0228176)
(-0.01256 0.101394 0.0138041)
(-0.00194706 0.0693454 0.00907832)
(0.0160841 0.0202768 0.00541116)
(-0.0247295 0.0354188 0.0171237)
(-0.00380347 0.0902881 0.011512)
(0.000465958 0.0640543 0.00775103)
(0.00423535 0.0216008 0.00566161)
(0.00116649 0.0605968 -0.000581577)
(0.00049604 0.0446997 0.000223443)
(0.000243462 0.0299002 0.000223048)
(0.000135577 0.0170153 0.000149007)
(9.38132e-05 0.00550944 0.000108668)
(0.00153121 0.0599537 -8.52144e-05)
(0.000755664 0.044613 0.00015411)
(0.000397729 0.0299245 0.00012639)
(0.000228004 0.0170391 8.24882e-05)
(0.000159099 0.00551753 6.01733e-05)
(0.00278798 0.0613587 0.000293075)
(0.00115291 0.0450755 0.000663193)
(0.000563622 0.0300785 0.000458876)
(0.000315107 0.0170962 0.000286434)
(0.000219637 0.00553269 0.000205146)
(0.00345451 0.0609165 0.000859316)
(0.00168981 0.0450931 0.000652732)
(0.00089104 0.0301626 0.000398573)
(0.000513489 0.0171497 0.000241361)
(0.000359585 0.00554972 0.000171463)
(0.00369989 0.0628433 0.00123716)
(0.00144413 0.0456103 0.00119837)
(0.000696795 0.0303097 0.000759267)
(0.000389071 0.0171985 0.000466678)
(0.000271969 0.00556194 0.000333534)
(0.00463706 0.0621326 0.00346098)
(0.00224115 0.0456632 0.00221654)
(0.00118549 0.030443 0.00129599)
(0.000687529 0.0172807 0.000778213)
(0.000483559 0.00558817 0.000551777)
(0.00241681 0.0630385 0.00411808)
(0.00114376 0.0463112 0.00260288)
(0.000602821 0.0308131 0.00152322)
(0.000350425 0.0174643 0.000917568)
(0.000246715 0.00564334 0.000652991)
(0.00173097 0.0645203 0.00600229)
(0.000675604 0.0472394 0.00344145)
(0.000324593 0.0313385 0.00195391)
(0.000182804 0.0177253 0.001166)
(0.000127263 0.00572184 0.000828492)
(0.00368892 0.0643464 0.00214152)
(0.00147301 0.0462525 0.0017469)
(0.00072591 0.0306427 0.00107105)
(0.000411041 0.0173583 0.000652722)
(0.000286553 0.00560943 0.00046356)
(0.00176326 0.0686591 0.00231198)
(0.000604081 0.0470314 0.00165128)
(0.000279633 0.0308613 0.000988657)
(0.000154539 0.0174379 0.000600816)
(0.000106741 0.00563095 0.000426953)
(0.00389361 0.0646588 0.0014916)
(0.0017095 0.0460857 0.00140794)
(0.000882407 0.0304824 0.000878707)
(0.000508027 0.0172696 0.000540298)
(0.000356671 0.00558174 0.000385829)
(0.00166875 0.0685671 0.00278899)
(0.000601296 0.0467492 0.00173066)
(0.000287134 0.0306839 0.000997274)
(0.000160142 0.0173481 0.000600797)
(0.000110521 0.00560349 0.000425413)
(0.00284611 0.064928 0.00279037)
(0.000965404 0.0468207 0.00207935)
(0.000439541 0.0309737 0.00126009)
(0.0002421 0.0175236 0.00076682)
(0.000167523 0.00565936 0.000546298)
(0.00167344 0.0699138 0.0031125)
(0.000539912 0.0475828 0.00197365)
(0.000244928 0.0311624 0.00115545)
(0.000135324 0.0175872 0.000697868)
(9.37503e-05 0.00567609 0.000496228)
(0.00250046 0.0664132 0.00476624)
(0.000631735 0.0477224 0.00277083)
(0.000230786 0.0314681 0.00157766)
(0.000115119 0.0177672 0.000942466)
(7.63852e-05 0.00573263 0.000669438)
(0.00138304 0.0714906 0.00398708)
(0.00029982 0.0483875 0.00228792)
(9.97156e-05 0.0315904 0.00130052)
(4.75538e-05 0.0177976 0.000776932)
(3.08801e-05 0.00573961 0.000550949)
(0.000976216 0.0622535 -0.0010768)
(0.000375818 0.0449246 0.000108319)
(0.000177369 0.029898 0.000164896)
(9.65725e-05 0.0169963 0.000114491)
(6.61561e-05 0.00550237 8.4241e-05)
(0.000707231 0.0654229 -0.000588219)
(0.00029791 0.0451779 3.32197e-05)
(0.00014708 0.0299041 6.48564e-05)
(8.1297e-05 0.0169851 4.59522e-05)
(5.5922e-05 0.00549806 3.43092e-05)
(0.00238572 0.0629728 -0.000500999)
(0.000939442 0.0452211 0.00038574)
(0.000454035 0.0300309 0.000311171)
(0.000250509 0.017055 0.000199485)
(0.000173046 0.00551896 0.000144481)
(0.00182558 0.0659969 -0.000382501)
(0.000780888 0.045402 0.000131542)
(0.000391551 0.0300057 0.000115744)
(0.000218087 0.0170302 7.49795e-05)
(0.000150388 0.00551087 5.49183e-05)
(0.00334626 0.0644444 0.000222725)
(0.00115921 0.0457177 0.000708032)
(0.000536266 0.0302397 0.00047797)
(0.000291063 0.0171467 0.00029786)
(0.000200241 0.00554493 0.000215188)
(0.00247174 0.06726 0.000400194)
(0.00107099 0.0458097 0.000458492)
(0.000542887 0.0301859 0.00028043)
(0.0003033 0.0171108 0.00016838)
(0.000210575 0.00553373 0.000120848)
(0.00299643 0.0668092 0.00184078)
(0.00131359 0.0462855 0.00140279)
(0.000680709 0.030451 0.000838516)
(0.000389666 0.0172368 0.000511308)
(0.000273665 0.00557023 0.000366987)
(0.00167626 0.0687737 0.00123851)
(0.000811784 0.0462471 0.00088951)
(0.000426286 0.0303911 0.000518648)
(0.000241425 0.0172039 0.000313311)
(0.000169458 0.00555997 0.000224841)
(0.00154789 0.0690421 0.00342048)
(0.000720795 0.0465776 0.00184712)
(0.00038294 0.0305708 0.0010276)
(0.000221949 0.0172905 0.000611212)
(0.000156036 0.00558568 0.000432583)
(-0.0119303 0.412165 0.0718189)
(-0.0174631 0.635459 0.163884)
(-0.0257582 0.430801 0.073126)
(-0.042373 0.645932 0.162566)
(-0.0242524 0.457821 0.0805881)
(-0.0522648 0.658833 0.161661)
(-0.00107018 0.474946 0.0958164)
(-0.0404164 0.665382 0.168043)
(0.0257601 0.453286 0.0995133)
(-0.00088149 0.636544 0.172719)
(-0.0261486 0.417031 0.0410223)
(-0.0470255 0.470337 0.0617595)
(0.0156312 0.418464 0.066211)
(0.0121416 0.494796 0.103585)
(-0.0451745 0.418848 0.0223357)
(-0.0730301 0.465376 0.0307277)
(-0.0586793 0.425892 0.0082315)
(-0.084406 0.470608 0.0105055)
(-0.0264028 0.3659 0.371638)
(-0.00616306 0.0626976 0.088888)
(-0.00139297 0.0134074 0.0204053)
(-0.00030861 0.00300981 0.00456628)
(-7.76571e-05 0.000533351 0.00113699)
(-0.00840373 0.407199 0.101479)
(-0.00391571 0.115972 0.0273523)
(-0.000548516 0.0281774 0.00728319)
(-0.000146975 0.00639797 0.00165907)
(-6.49023e-05 0.0011333 0.00036158)
(-0.0810672 0.368827 0.366811)
(-0.0188301 0.0620828 0.0870395)
(-0.00427046 0.0131831 0.0199649)
(-0.0009414 0.00294868 0.00443092)
(-0.000237206 0.000521162 0.00111155)
(-0.0199082 0.40977 0.103332)
(-0.00545084 0.115255 0.0304885)
(-0.00133682 0.027903 0.007524)
(-0.00028232 0.00630662 0.00175221)
(-7.66582e-05 0.00110766 0.000436121)
(-0.135925 0.370808 0.349431)
(-0.0316332 0.0615882 0.082366)
(-0.00719326 0.0129723 0.018827)
(-0.001591 0.00288975 0.00417389)
(-0.000400023 0.000509754 0.00104849)
(-0.0317864 0.410957 0.1003)
(-0.00928294 0.114409 0.0294649)
(-0.0022661 0.0275584 0.00725112)
(-0.000528351 0.00620727 0.00168015)
(-0.000133331 0.00108877 0.000419707)
(-0.181765 0.365689 0.319006)
(-0.0424217 0.0594581 0.0745554)
(-0.00968635 0.0124159 0.0169952)
(-0.00214907 0.00275958 0.00376548)
(-0.000541024 0.000486563 0.000946392)
(-0.036887 0.40437 0.0973126)
(-0.0116636 0.111573 0.0279866)
(-0.00293908 0.0267857 0.00679894)
(-0.000692798 0.00602455 0.00156158)
(-0.000174378 0.00105581 0.000388054)
(-0.226113 0.345045 0.266131)
(-0.0532918 0.0546871 0.0618986)
(-0.0122534 0.011398 0.0141211)
(-0.00273252 0.00254168 0.00313364)
(-0.000690843 0.000449236 0.000788753)
(-0.040651 0.381315 0.0916862)
(-0.0141661 0.105425 0.0256632)
(-0.00367461 0.0253974 0.00616805)
(-0.000877261 0.00572961 0.00140807)
(-0.000223381 0.00100575 0.000348942)
(-0.265913 0.304498 0.125087)
(-0.0645873 0.0501781 0.0304295)
(-0.0150578 0.0108009 0.00706376)
(-0.003387 0.00244851 0.00157962)
(-0.00086038 0.000436192 0.00039842)
(-0.0643031 0.311788 0.0447133)
(-0.0198474 0.0904923 0.0127138)
(-0.00492728 0.0223877 0.0030331)
(-0.00113688 0.00513609 0.00068074)
(-0.000286025 0.000910439 0.000168362)
(-0.248357 0.316559 0.186951)
(-0.060129 0.051334 0.0448385)
(-0.0139571 0.0109196 0.0103266)
(-0.00312619 0.0024597 0.00229759)
(-0.00079153 0.000436728 0.000578458)
(-0.0493084 0.331964 0.0657713)
(-0.0167209 0.0961748 0.0184593)
(-0.00428728 0.0235813 0.00443908)
(-0.0010101 0.00536621 0.00101283)
(-0.00025457 0.000946074 0.00025269)
(-0.273687 0.299625 0.0732862)
(-0.0665561 0.0498476 0.0179689)
(-0.0155451 0.0107786 0.00419105)
(-0.00350216 0.00244922 0.000941933)
(-0.000891048 0.000436745 0.00023808)
(-0.0732648 0.304674 0.0251037)
(-0.0218313 0.0878792 0.00741976)
(-0.00533551 0.0217585 0.00176116)
(-0.00121334 0.00500754 0.000395287)
(-0.000304392 0.000890189 9.87078e-05)
(-0.284898 0.298165 0.0253404)
(-0.0686842 0.0494004 0.00617822)
(-0.0160628 0.0106724 0.00144499)
(-0.00361702 0.00242589 0.000326016)
(-0.000919737 0.000432202 8.2492e-05)
(-0.0761785 0.304577 0.0100889)
(-0.0227544 0.0871999 0.00271977)
(-0.00560877 0.0215314 0.000601171)
(-0.0011852 0.00496641 0.000167851)
(-0.000314485 0.000881428 3.31158e-05)
(-0.0206284 1.36373 0.000999796)
(-0.283687 1.93728 0.0178009)
(-0.258879 1.89232 0.185807)
(-0.0921292 1.32261 -0.0361766)
(0.0670736 0.777223 0.0305505)
(0.11397 0.818341 0.0327398)
(0.317126 1.14636 0.0955298)
(0.46367 1.19859 0.122393)
(0.0716709 0.898875 0.0773307)
(0.340593 1.00839 0.144933)
(-0.0680815 1.43069 0.122258)
(0.103734 1.95446 0.188498)
(0.100811 1.80952 0.147756)
(0.200405 2.39941 0.18332)
(0.379806 1.1811 0.0766502)
(0.537921 1.34725 0.103169)
(0.574165 0.925995 0.0814969)
(0.721139 0.990018 0.0966862)
(0.234514 0.50238 0.042355)
(0.303804 0.551129 0.0440401)
(-0.798074 0.195309 0.0927345)
(-0.575246 0.127873 0.0669228)
(-0.183663 0.0313079 0.0230468)