/*--------------------------------*- C++ -*----------------------------------*\
| =========                 |                                                 |
| \\      /  F ield         | OpenFOAM: The Open Source CFD Toolbox           |
|  \\    /   O peration     | Version:  2306                                  |
|   \\  /    A nd           | Website:  www.openfoam.com                      |
|    \\/     M anipulation  |                                                 |
\*---------------------------------------------------------------------------*/
FoamFile
{
    version     2.0;
    format      ascii;
    arch        "LSB;label=32;scalar=64";
    class       volScalarField;
    location    "1.8";
    object      gradTy;
}
// * * * * * * * * * * * * * * * * * * * * * * * * * * * * * * * * * * * * * //

dimensions      [0 -1 0 1 0 0 0];

internalField   nonuniform List<scalar> 
5712
(
11947.5
6890.64
19348.2
12697.8
21127.6
15652.9
33122.9
41132.5
43571.8
53395.3
28199.9
24525.4
17907.6
14211.5
8996.32
6088.3
19988.4
20371.2
17250.2
20224
27004
24024.4
31232.9
25191.1
8413.36
6036.26
4735.38
3523.28
10046.9
8171.18
6111.96
4952.24
18381.7
19024.9
18723.3
15709.6
14509.4
11398.2
11433.6
13001.6
18413.9
18343.6
38729
40056.4
27368.2
28217.1
15704.2
13241.5
17054.8
12150.5
7932.19
8159.66
6541.18
9258.27
3425.4
4158.25
8959.12
12393.2
5345.21
6268.18
9897.16
16796.4
6871.15
11318
2614.2
6717.82
2176.46
5007.36
17925.3
22166
18556
22109.2
21906.9
22097.1
22370.9
21851.5
15828.6
21478.7
16218.5
21191.4
18303.9
21978.2
18311.9
21938.3
22591.8
21594.5
22533.3
21400.5
14642.3
21580.6
14145.1
21664.1
17979.5
21205.5
22700.8
31819.9
19047.4
24537.2
22502.8
34623.7
17044.8
18642.4
22785.2
30560.1
16865.2
17433.7
23029.2
30315.1
5482.71
7203.83
14009.6
24576.6
6780.03
7736.77
17997.8
27880.1
8411.92
8506.56
22757.6
31008
24714.6
26384.4
21060.1
20480.9
29963.7
26522.7
25168
21477.2
18722
34325.6
24192
23987.3
21498.1
21557.1
39113.3
2105.82
2532.85
4529.31
10425
2983.41
3390.06
6230.37
11635.1
4431.11
3756.61
8443.02
13280
26173.4
25714.4
23702.2
23175.6
20471.9
18615.5
15570.6
13711.8
11075.3
15508.9
23874.8
22939.6
24169
23671.3
21125.6
19716.8
17598.1
15732.6
11788.5
15614.7
23999.5
26989.2
23948.6
27681.4
23109.8
23875.5
22579.4
24077.3
21926.1
22290.8
21742.2
21632.6
23768
27808.9
23667.4
27792.4
21930.3
24390.9
21757.3
24343.8
22011
22240.4
22010.2
22230.7
18528.6
17610.4
11971.1
13343.2
18407.9
17155.5
11795.7
13419.4
18781.9
17552.4
12228.9
13385.6
18857.7
17373.5
12608
13389.1
1700.2
1137.11
782.804
978.107
662.955
616.84
2369.77
1392.95
1045.47
1921.53
1530.76
1309.35
2731.09
2233.12
2223.54
3371.8
2731.24
2439.5
24372
21803.4
20035.6
22512.9
20690.2
19267.9
16205.9
14907.9
14191.8
11085.8
9503.01
8825.95
5147.23
3746.75
3152.16
22089.2
20246.9
18726.1
22782.4
20548.6
18850.3
16956.9
14398.9
12956.7
11114.9
8776.8
7819.37
5469.87
3724.37
2965.26
27333.4
26696.3
29815.5
26707.2
30688.6
26708.6
37111.2
28172.6
21147.3
21423
20900.5
19369.7
23729.6
22305.7
23328.2
19907.9
23100.3
22892.6
21264.2
22699.6
28255.4
25429.4
28161.7
28613
30628.8
31699.1
23442.7
24342.4
20983.5
20377.8
25496.1
26171
16542
8947.15
15488.7
9900.37
16791.2
9029.03
15453.5
9841.28
16567.3
9075.87
15416.3
10255
15006.7
10727.7
15195
10640.2
21308.2
18176.8
21227.2
18174.9
23551.8
21235.7
23831.9
21052.6
20773.2
15159.9
21627.9
14941.5
21724.6
18102.7
22012.2
17903
24475.1
20896.7
24506.3
20636.2
20597.3
15216.4
20550
15126
13625.4
9116.31
12006.3
7753.58
12678.9
8171.04
11526.9
7249.23
13973.2
9684.53
12207.3
7989.55
13998.3
10030.3
12179.2
8047.86
2600.92
1361.84
4783.14
2592.24
2776.58
1671.82
5097.18
3102.82
3417.64
2524.52
5645.45
4058.81
13154.5
20381.7
9494.62
9116.24
6527.68
19932.8
13873.6
8148.83
8193.66
5382.25
20767
16336.4
12987.6
10121.4
6363.33
731.558
551.101
1500.74
1113.7
1035.1
714.948
2108.43
1681.79
1794.86
1385.4
3054.21
2489.8
20190.2
19458.5
13670.5
13039.5
8888.52
8905.88
7488.73
6836.72
4606.32
3778.52
18967.2
17182.5
14687.9
12836.9
11432
10098.3
8707.41
7814.4
5619.04
5512.98
15078.6
12147.4
15183.7
11872.4
18151.9
15021.8
18129
14835.2
12701.2
10250.7
12315.1
10275.4
15196.4
11698.3
15106
11682.7
18069.2
15130
17900.7
15090.2
12935
10098.1
12914.4
10232.2
9902.42
8334.94
6615.38
6908.07
9537.91
8146.94
6313.22
6543.76
10324.4
8501.06
6784.18
7308.77
10567.9
8500.11
7048.42
7414.12
1717.71
1507.71
1247.3
7386.99
3957.59
3234.93
1672.52
1644.78
1458.99
8036.15
4695.06
3978.3
2302.66
2573.53
2634.2
8920.18
5901.46
5251.23
18188.1
16860.2
15924.3
12418.5
11937.1
11637.4
9041.72
8854.66
8807.94
7729.44
7420.54
7211.33
10198.5
7314.11
6597.05
15537.4
14179.7
13276.3
11543
10633.2
10118.4
9574.29
8798.9
8364.4
9169.82
8074.21
7442.89
12426
8262.69
7399.57
4957
3108.05
2163.74
1736.48
5576.62
3374.72
2282.2
1779.36
4982.77
3105.4
2168.72
1748.79
5698.31
3444.55
2329.64
1804.12
4970.75
3073.58
2178.06
1748.72
5814.59
3488.84
2386.57
1814.94
6258.28
3694.01
2432.82
1873.36
6445.18
3837.16
2506.55
1939.27
5299.33
3272.03
2267.11
1774.76
4338.94
2871.55
2080.24
1703.76
4651.31
2964.39
2117.87
1659.51
3995.7
2706.96
1997.73
1637.59
5734.88
3504.92
2371.5
1849.37
4545.08
2992.12
2132.78
1755.52
5981.21
3663.85
2447.25
1906
4636.44
3078.82
2178.16
1788.37
3743.16
2668.33
1972.97
1648.98
2431.39
2142.79
1740.36
1550.61
3754.65
2655.94
1970.6
1645.7
2540.01
2172.53
1751.03
1559.32
3846.78
2655.19
1983.27
1656.41
2869.61
2269.79
1790.2
1597.27
3802.55
2591.18
1949.25
1689.87
3154.06
2338.15
1841.28
1591.45
3537.38
2515.64
1904.73
1613.69
1113.1
1716.93
1387.43
420.618
-355.503
1480.57
1245.25
442.3
1349.96
1795.49
1419.35
443.768
-64.3177
1567.87
1272.68
451.744
1795.85
1934.87
1466.9
442.368
432.034
1715.65
1312.51
456.865
2344.02
2101.41
1538.57
480.166
965.103
1880.42
1370.64
476.47
2710.72
2254.85
1627.69
558.283
1119.3
2006.58
1424.87
493.645
2895.18
2425.19
1667.11
531.801
834.551
2143.71
1526.37
524.038
2822.51
2349.79
1637.28
531.932
791.158
2080.13
1474.88
506.038
2920.02
2478.73
1689.25
496.478
782.451
2198.23
1560.13
527.21
2981.85
2534.84
1733.64
506.921
885.471
2257.2
1601.36
540.02
1514.92
1117.49
747.505
425.382
137.736
1498.84
1115.32
748.111
425.978
137.938
1533.97
1126.89
751.964
427.405
138.317
1522.91
1127.33
754.064
428.743
138.743
1571.08
1140.26
757.744
429.963
139.048
1553.31
1141.58
761.075
432.018
139.704
1575.96
1157.78
770.329
436.608
141.084
1613.01
1180.98
783.463
443.133
143.046
1608.66
1156.31
766.069
433.957
140.236
1716.48
1175.78
771.531
435.949
140.774
1616.47
1152.14
762.06
431.74
139.543
1714.18
1168.73
767.097
433.702
140.087
1623.2
1170.52
774.343
438.091
141.484
1747.84
1189.57
779.06
439.681
141.902
1660.33
1193.06
786.703
444.18
143.316
1787.26
1209.69
789.76
444.941
143.49
1556.34
1123.12
747.45
424.908
137.559
1635.57
1129.45
747.603
424.628
137.451
1574.32
1130.53
750.771
426.375
137.974
1649.92
1135.05
750.142
425.756
137.772
1611.11
1142.94
755.991
428.668
138.623
1681.5
1145.24
754.647
427.769
138.343
1670.23
1157.14
761.275
430.92
139.256
1719.34
1156.18
759.777
430.098
138.999
1726.05
1164.44
764.27
432.262
139.642
10304.1
15886.5
10770
16148.3
11445.5
16470.8
11873.7
16634.6
11332.2
15913.6
10425.8
11758.4
10461.6
12369.9
10471.2
11634.4
10647.3
11765.2
9147.5
1567.44
335.186
75.2452
13.3338
10180
2899.3
704.434
159.949
28.3325
9220.68
1552.07
329.577
73.7171
13.029
10244.2
2881.38
697.576
157.665
27.6916
9270.19
1539.7
324.308
72.2437
12.7438
10273.9
2860.23
688.961
155.182
27.2193
9142.21
1486.45
310.397
68.9895
12.1641
10109.3
2789.32
669.643
150.614
26.3952
8626.13
1367.18
284.949
63.5419
11.2309
9532.89
2635.62
634.936
143.24
25.1438
7612.45
1254.45
270.023
61.2128
10.9048
7794.69
2262.31
559.693
128.402
22.761
7913.97
1283.35
272.989
61.4925
10.9182
8299.11
2404.37
589.533
134.155
23.6519
7490.63
1246.19
269.465
61.2304
10.9186
7616.84
2196.98
543.963
125.189
22.2547
7454.14
1235.01
266.81
60.6472
10.8051
7614.43
2180
538.285
124.16
22.0357
34093.1
48432
47307.9
33065.2
19430.6
20458.5
28659
29964.8
22471.9
25209.9
35767.3
48861.4
45238.1
59985.3
29527.5
33681.2
23149.9
24750.4
12559.5
13778.2
4882.73
3196.81
782.698
590.414
666.985
579.955
717.819
4732.44
4626.7
2769.34
3871.93
3681.47
1574.45
2201.93
1978.38
1288.32
1490.75
1211.93
4276.74
2267.7
1410.36
1243.4
1604.4
1384.13
1070.93
1004.89
934.054
815.181
1128.54
1015.04
4496.28
2692.41
3099.74
1940.08
1579.83
2256.94
1091.96
841.172
1205.93
9862.96
9833.34
9909.73
10979.2
17755.1
7035.38
7981.72
8634.45
9596.22
11090.1
2052.94
2920.51
3573.37
4014.61
4241.79
1561.74
2248.69
2777.35
3135.84
3317.76
1762.03
2531.07
3117.12
3509.89
3707.13
1535.9
2214.86
2737.91
3091.48
3269.87
1891.03
2705.89
3323.17
3737.38
3946.77
9888.8
10078.2
9838.67
10306.9
15852.2
9644.26
9658.24
9261.34
9378.44
10612.1
6327.78
7427.81
7941.38
8416.19
9029.38
8317.44
8647.7
8346.54
8216.44
8379.3
7905.62
8296.9
7989.13
7735.67
7704.07
3907.86
5131.56
5882.79
6349.76
6608.07
5207.61
6390.15
6975.74
7340.63
7605.01
4742.73
5918.45
6502.98
6806.03
6962.78
3271.61
4433.87
5199.65
5673.97
5913.31
3717.81
4908.29
5632.75
6056.83
6266.81
3097.48
4234.17
4994.06
5461.41
5690.26
9110
9601.35
9651.29
10372.2
16148.5
5361.06
6621.91
7368.37
8007.54
8667.89
3554.39
4772.71
5575.72
6100.77
6396.57
3170.16
4330.89
5134.16
5671.6
5970.18
3979.36
5240.16
6066.01
6654.66
7053.46
3497.91
4727.15
5577.05
6174.76
6537.21
2761.59
3838.49
4621.19
5159.64
5455.97
2606.86
3649.07
4405.83
4911.36
5175.38
2435.7
3430.32
4150.89
4617.95
4850.04
2138.4
3039.4
3708.93
4151.16
4372.79
2903.2
4010.57
4780.93
5276.29
5529.48
2630.96
3676.22
4427.2
4920.98
5174.85
9311.43
9566.95
9695.48
10667.6
17026.1
6120.86
7244.43
7998.56
8882.17
10035.7
7156.01
8302.53
8832.54
9706.17
11700.3
4701.71
6033.04
6933.66
7695.72
8340.84
3936.61
5227.83
6114.62
6780.85
7236.27
5344.05
6636.27
7447.63
8186.39
8955.6
2814.15
3905.87
4692.18
5226.56
5517.25
2201.35
3119.72
3801.55
4256.02
4487.46
3083.52
4232.1
5040.4
5589.61
5896.6
18821.6
12513.6
19377.9
13858.5
25078.4
35939.6
26232.1
35780.6
19904.2
21023
17098.2
20338
22555.5
21398.9
28807.5
23542
14548
13655.2
7128.23
6105.75
15843.2
14529.3
8181.07
6696.43
19611
21171.8
20064.6
18273.7
20495.5
13496.3
11257.4
12975.7
18363.8
18326
38242.1
39963.4
26659.5
28028.7
16337.9
13378.9
17794.4
12284.9
8633.71
8330.43
14414.6
15986.5
6026.87
6586.65
15843.8
18124.4
7509.47
8307.24
15082.3
21152.9
8752.21
13533.8
3051.78
7481
2264.49
5156.2
18493.9
21113.2
18438.8
21497.5
20096.7
20352.1
21206.7
20880.2
16893.1
21361.1
19173.4
21062.5
18134.2
21651.1
18242.8
21832.2
21996.3
21100.4
22359
21247.9
14964
21491.5
14198.4
21627.6
18921.9
22472.1
22957.6
32130.8
20627.5
26645.8
23045
35270.5
17474.4
19254.3
22882.8
30695.2
16975.8
17603.7
23047.5
30349.9
19778.9
21353.5
24879.7
36966.5
19875.3
20319.1
26616.9
37432.1
19547.7
19186.5
28620.5
37096.4
18692.1
19482.8
20084.3
21492.2
32519.2
18707.1
17555.8
21417.9
19617.8
37215.4
19518.8
20453
20399
22263.6
40191.7
11730.3
10700
10958
14240.5
12844.9
11735.3
11349
14624.1
14146.7
12226.3
11863.2
14932.1
18089.2
17317.5
17055.2
16525.2
19821.4
18455.4
16436.3
14753.3
12415.8
15566.6
19133.5
18834.5
20369.2
20434.9
19649.2
18441.1
17925.9
15890.9
12218.5
15038.3
22190.7
24938.9
23044.1
26585.6
20881.5
21738.1
21516.5
23028.5
21448.3
21660.7
20916.5
20623.2
23328.6
27281.6
23534.2
27635.9
21436.4
23885.3
21611.4
24196.6
21753
21918.9
21928.5
22134.9
18422.8
17366
12021.3
13254.9
18358.4
16887.3
11998.8
13325.1
18697.9
17406.7
12231
13326.6
18825.9
17326
12603.5
13366.9
9773.1
9923.34
4225.52
3883.49
10901.1
10535.6
4733.43
4522.32
10613.6
9917.71
5382.83
5186.81
16980.6
16406.1
16667.9
16686.2
16718.3
16151.4
12646.3
11271.4
6356.14
5225.88
19034.4
18183.5
20475.4
19597.6
16360.7
15095.3
11824.1
10101.9
5839.27
4359.18
22388.6
21231.7
27554.9
23998.7
24994.6
22217.8
34357.3
25825.2
20458.9
16843.1
22338.4
17706.7
20327
17123.2
22432.6
17940.1
20953.6
18514.7
18910.5
17532.9
21403.2
22755.5
26808.6
28203.4
29502.8
31375.4
22106.8
23873.9
19926.3
20076.5
23969.4
25657.8
13728.8
10161.6
14190.9
10394.8
14009.7
10074.8
14386.3
10248.9
13911.2
9925.46
14326.4
10447.4
14373.3
10761.1
14987.6
10644
17432.1
16878.4
19304.2
17374.2
20022.7
19151
21964.6
19897.7
18956.6
14861
17968.9
14658.7
20773.5
17677.8
21730.1
17774.4
23571.3
20316.8
24245.5
20461.4
19697.3
15028.4
20287.3
15067.6
13219.9
9528.92
12209.4
8134.53
12625.4
9234.07
12128.2
8054.19
13659
9835.82
12270.1
8167.4
13888.1
10066.1
12195.1
8105.52
13183.1
13281.9
9541.54
8800.85
13316.9
13392.9
9396.55
8728.27
13262
12869.7
9164.82
8629.3
15385.3
18185.3
16170.9
12037.7
8900.01
16856.3
15741.9
17560.2
12049.8
8600.06
18592.6
16433.2
14555.8
12218
7979.84
13748.7
14745
8709.17
9311.42
13617.5
14372
8635.55
9190.48
12727
13089.9
8276.56
8365.08
16632.9
15692.1
14987.2
14341.4
15523.2
15841.5
12103.3
12766.9
8045.32
7836.52
16842
15362.7
15122.1
13721.7
13571.3
12867.4
11489
11374.7
7439.52
7830.98
14814
12565.3
14896.2
12011.3
16828.4
14205.7
17367.4
14404.9
12872.3
10814
12949.2
11564
15012.1
11754.7
15048.4
11697.2
17688.1
14917
17787.2
15029.3
12956.3
10338.8
12907.5
10292.5
10399.8
9121.5
7107.42
7637.39
10676.7
9795.94
7285.38
8009.2
10521.9
8848.58
7012.92
7695.86
10623.6
8600.76
7125.51
7535.28
17350.7
17270.5
23316.6
19721.7
16687.6
16712.8
22368.2
18861.2
14675.4
15231.1
20545.5
17536.9
15134.9
14568.1
13850.9
13599.1
15919.2
16275
14568.9
14470.6
18854.5
16033.5
14265.2
13515.1
12962.1
12721.6
13108.5
13366.7
13899.2
13531.4
18351.8
14679.2
6425.83
4075.97
2737.39
2114.46
6663.08
4203.41
2810.95
2133.45
6313.77
4004.29
2692.82
2092.9
6605.07
4161.12
2786.73
2111.92
6109.91
3864.3
2637.55
2049.72
6518.84
4065.72
2769.05
2074.79
6668.35
4056.44
2690.31
2056.17
6582.22
3963.11
2593.62
2002.86
5895.34
3728.54
2580.28
2002.4
4743.34
3199.17
2303.17
1875.31
5591.47
3614.05
2525.5
1938.2
4656.42
3210.42
2295.64
1843.49
6063.42
3777.37
2567.94
1995.32
4763.48
3177.27
2272.29
1871.7
6083.01
3755.03
2514.69
1957
4705.3
3139.15
2225.77
1828.28
5932.23
3835.14
2605.56
2054.07
5117.24
3480.03
2431.06
1982.39
5784.01
3760.84
2563.89
2023.51
5015.54
3437.7
2407.64
1971.98
5576.41
3640.5
2516.45
1998.9
4940.55
3382.18
2380.26
1968.52
5134.05
3419.54
2407.04
1989.91
4769.65
3289.76
2342.46
1893.45
4516.49
3196.55
2274.79
1845.55
3924.44
3117.49
2031.55
575.663
2087.55
2886.15
1901.96
628.73
3957.55
3115.42
2032.95
595.722
2237.73
2888.52
1899.51
631.189
4018.61
3094.97
2010.52
569.518
2446.2
2875.06
1874.92
616.968
3975.09
3044.08
2016.66
598.629
2462.25
2830.15
1856.11
617.119
3712.37
2942.22
2015.05
673.235
1969.05
2723.65
1821.23
613.335
3205.17
2717.19
1898.16
615.301
1001.54
2454.89
1736.81
595.743
3387.46
2813.55
1951.75
633.164
1183.59
2571.04
1773.26
600.838
3074.94
2639.15
1829.26
549.099
845.398
2367.6
1683.36
570.886
3026.76
2585.98
1779.9
524.719
898.484
2310.16
1641.22
554.393
1791.3
1279.75
835.976
468.519
150.583
1751.49
1269.3
833.078
467.57
150.339
1790.18
1274.92
832.582
466.71
150.024
1745.79
1261.79
828.192
465.033
149.565
1804.81
1270.95
828.584
464.47
149.325
1741.43
1253.04
822.392
462.028
148.654
1705.2
1235.09
813.041
457.552
147.334
1660.53
1210.14
799.655
451.093
145.425
1781.08
1257.09
820.886
460.701
148.205
1880.2
1265.54
819.724
459.388
147.754
1835.55
1271.88
826.46
463.057
148.867
1925.23
1276.58
824.562
461.588
148.386
1737.08
1239.66
812.23
456.622
147.011
1853.93
1250.39
811.962
455.73
146.687
1699.75
1217.01
799.896
450.652
145.251
1823.71
1230.86
801.263
450.57
145.176
1869.7
1295.13
839.448
469.515
150.825
1998.59
1309
841.867
470.141
150.973
1873.57
1292.16
837.068
468.208
150.415
1999.89
1306.34
839.982
469.132
150.659
1889.51
1288.23
833.289
466.128
149.765
2006.34
1301.16
836.363
467.237
150.072
1931.13
1286.89
829.905
464.155
149.14
2016.02
1293.42
831.855
464.951
149.36
1975.15
1284
827.557
462.921
148.761
12121.4
15992.8
12179.4
15995.1
12304.2
15981.8
12083
15768.2
11268.5
14966.4
10398.3
11652.3
10450.2
12152.5
10448.5
11579
10638.9
11748.1
9383.4
1566.35
330.465
73.7023
13.0176
10102.9
2867.71
692.967
156.637
27.6649
9339.49
1539.93
323.665
72.0476
12.7034
10054.1
2830.92
683.436
154.027
26.9983
9210.29
1510.85
316.61
70.3849
12.4034
9929.22
2783.87
671.231
151.116
26.488
8934.87
1446.34
301.832
67.1036
11.8333
9663.32
2696.73
649.924
146.384
25.6647
8407.13
1330.86
277.526
61.9335
10.9515
9124.95
2549.71
616.661
139.362
24.482
7542.82
1240.84
266.7
60.4103
10.758
7703.69
2230.83
551.275
126.399
22.4007
7794.26
1260.39
267.731
60.2862
10.7036
8119.37
2348.88
576.021
131.129
23.1257
7453.4
1238.91
267.636
60.7747
10.8336
7571.92
2181.17
539.525
124.088
22.0514
7442.37
1232.7
266.225
60.4998
10.7772
7600.65
2175.24
536.923
123.814
21.9708
33650.8
48158.3
46320.7
31723.4
24723.9
29544.4
23882
29423.3
27762.4
44236
29461.8
45316.4
157.256
172.452
206.159
261.162
342.245
455.38
169.91
185.667
220.491
276.776
358.031
468.618
147.797
143.156
163.798
160.679
199.443
199.918
258.116
265.764
343.647
360.807
457.046
476.454
608.135
809.176
1077.94
1443.51
1870.25
2178.05
613.243
795.754
1018.91
1274.26
1521.52
1682.51
420.868
616.914
774.435
884.474
941.032
461.286
675.619
847.492
967.341
1028.86
550.967
805.857
1009.5
1151.06
1223.59
697.024
1017.34
1271.86
1448.04
1538.06
911.553
1326.26
1653.27
1878.36
1993.06
1208.99
1750.56
2172.97
2461.86
2608.82
454.542
665.89
835.496
953.84
1014.61
496.39
726.517
910.751
1039.04
1104.82
588.877
860.455
1076.95
1227.18
1304.07
738.017
1075.71
1343.26
1528.1
1622.47
952.463
1383.39
1722.03
1954.76
2073.36
1242.46
1795.59
2225.62
2519.61
2669.43
395.604
580.053
728.411
832.132
885.462
383.186
561.904
705.734
806.328
858.054
438.228
642.087
805.746
919.965
978.62
429.893
629.942
790.625
902.804
960.411
533.16
780.171
977.776
1115.26
1185.73
534.439
782.105
980.308
1118.24
1188.91
689.136
1006.4
1258.86
1433.74
1523.12
709.527
1036.15
1296.05
1476.04
1567.98
915.715
1333.26
1662.96
1889.97
2005.6
961.323
1399.37
1744.99
1982.69
2103.62
1214.35
1760.23
2186.65
2478.06
2625.99
1265.98
1835.01
2279.04
2581.84
2735.17
1606.09
2307.8
2846.74
3213.23
3400.31
2118.7
3007.75
3676.68
4131.93
4368.88
2782.13
3873.58
4673.16
5227.73
5533.81
3637.9
4910.89
5814.97
6482.06
6905.76
4561.64
5908.29
6840.03
7613.08
8222.87
5199.85
6554.59
7481.96
8327.43
9088.89
1617.91
2321.57
2861.17
3228.67
3416.89
2084.51
2961.27
3622.34
4073.07
4307.63
2642.36
3702.54
4486.32
5026.69
5318.26
3261.11
4489.99
5379.99
6010.51
6373.56
3838.22
5187.1
6147.62
6856.26
7299.93
4205.8
5618.47
6616.69
7376.53
7879.55
159.449
179.149
217.96
279.01
367.403
489.277
172.192
192.628
232.622
294.769
382.597
500.092
149.976
145.395
170.536
167.658
211.468
212.524
276.669
285.601
370.312
389.29
494.631
517.96
650.705
856.871
1124.23
1478.59
1888.95
2183.36
650.706
836.264
1057.63
1305.38
1540.91
1688.98
426.743
625.584
785.426
897.129
954.549
479.33
702.36
881.441
1006.47
1070.71
582.797
853.115
1069.62
1220.47
1297.88
745.261
1089.2
1363.6
1554.25
1651.94
979.786
1428.48
1784.5
2030.99
2157.11
1301.43
1890.23
2353.78
2673.53
2837.15
460.674
674.966
847.026
967.135
1028.82
515.169
754.397
946.214
1079.98
1148.64
621.633
909.184
1139.06
1299.01
1381.02
786.703
1148.38
1436.22
1635.91
1738.17
1019.15
1483.46
1850.72
2104.64
2234.57
1328.31
1925.39
2393.79
2716.62
2882.03
401.453
588.686
739.346
844.71
898.894
389.197
570.776
716.962
819.237
871.833
456.366
668.931
839.784
959.16
1020.51
448.672
657.718
825.824
943.317
1003.7
565.569
828.233
1038.85
1185.71
1261.09
568.403
832.458
1044.27
1192
1267.82
739.252
1081
1354.01
1543.84
1641.11
763.125
1115.97
1397.9
1593.93
1694.35
988.047
1441.65
1802.14
2051.87
2179.61
1038.71
1515.63
1894.65
2157.13
2291.32
1316.92
1915.35
2387.61
2713.46
2879.98
1379.44
2007.08
2502.58
2844.27
3018.67
1723.21
2487.15
3081.88
3491.24
3701.84
2251.88
3216.1
3955.12
4465.97
4734.19
2914.98
4089.08
4969.95
5591.88
5937.37
3744.58
5095.3
6080.7
6819.32
7288.09
4625.09
6028.12
7020.99
7851.25
8501.26
5220.02
6595.47
7545.62
8413.27
9191.33
1720.83
2478.87
3067.09
3471.9
3680.58
2196.98
3135.88
3854.24
4350.04
4609.8
2751.63
3876.02
4721.24
5311.5
5631.72
3351.1
4637.26
5584.3
6262.86
6654.59
3896.06
5284.96
6286.55
7030.99
7497.06
4225.53
5652.59
6665.81
7439.02
7950.63
4866.14
3196.24
840.912
639.091
736.258
635.035
782.724
4452.71
4263.84
2745.26
3484.33
1656.51
2219.74
1381.66
1540.24
1289.31
4152.62
2302.76
1498.84
1327.58
1678.05
1453.78
1130.71
1080.74
1032.32
902.85
1223.3
1101.52
4448.09
2699.21
3077.38
1972.29
1633.42
2288.48
1161.63
914.888
1282.73
9862.96
9886.24
10009.8
11140.8
18048.4
7049.89
8028.79
8717.24
9717.97
11248.6
2215.86
3176.31
3916.29
4426.74
4692.74
1695.67
2453.95
3046.71
3454.47
3663.35
1953.57
2826.73
3507.77
3974.48
4212.59
1687.41
2446.93
3042.28
3451.38
3660.17
2071.75
2987.55
3698.29
4185.86
4435.95
9767.79
10780
11303.4
12489.2
19223.9
9559.9
10773.7
11489.5
12567.6
14550.5
6512.25
8152.3
9275.96
10296
11274.4
8292.08
9927.78
10769
11652.5
12444.1
4221.8
5784.22
6909.12
7698.81
8148.27
5471.1
7175.89
8346.83
9222.87
9794.17
3581.84
5017.63
6077.91
6803.27
7189.26
3965.9
5503.93
6621.91
7387.53
7800.51
3360.99
4742.73
5772.23
6471.69
6836.57
9062.83
10009.8
10553.2
11749.4
18388.1
5569.93
7153.96
8272.26
9252.51
10148.7
3847.6
5323.63
6405.52
7170.54
7608.9
3429.74
4787.48
5797.68
6511.23
6913.94
4234.52
5737.27
6829.82
7653.74
8199.7
3715.81
5116.26
6148.86
6905.3
7364.41
2935.47
4125.39
5021.38
5654.51
6006.38
2826.82
4010.7
4908.49
5530.32
5861.16
2718.02
3889.27
4783.59
5392.89
5706.17
2384.6
3427.79
4231.74
4781.26
5063.16
3191.41
4510.26
5499.88
6179.12
6538.63
2884.17
4097.21
5016.66
5649.59
5983.26
9314.51
9735.93
10017.2
11175.6
17941.3
6176.03
7389.06
8242.9
9229.49
10472.6
7220.5
8611.31
9419.08
10577.1
12867.8
4820.45
6273.2
7310.59
8201.85
8937.84
4110.62
5549.43
6597.58
7408.44
7956.28
5507.47
7035.42
8123.23
9123.7
10081.5
3018.71
4247.22
5171.92
5822.11
6180.49
2410.26
3453.24
4254.59
4805.13
5090.71
3315.61
4632.02
5614.64
6311.87
6706.42
8665.76
8201.98
7383.57
6209.2
4556.16
1794.24
19123
19459.2
22014.3
22736.3
18701.2
19796.2
21013.4
20315.4
15741
19573.3
16389.9
20119.8
18793.2
16924.8
26414.7
18358.8
18551.9
20747.1
21220.9
17667.9
18746.3
20062.2
19575.7
15659
23632
16218
23472.1
18960.5
20604.3
28329.4
17487.8
17550.3
19124
19346.9
16880.6
18369.6
18780
18800.9
17935.4
20848.2
18696.8
20836.9
20571.3
22678.8
25442.2
16650.3
16732.4
17628.4
17688.7
16389
18114
17459.3
17759.8
16755.3
18173.7
17486.9
17691.3
18744.9
20313.1
21904
15779.3
15895.8
16593
16567.2
16033.3
17907.6
16573.1
17059.5
15816.6
14934
16573.8
14318
17174.5
17027.3
18011.8
15382.1
15543.1
15899
15839.6
15607.4
17147.7
15997.3
16404.4
15061.9
12788.6
15619.6
12513.4
15933.1
14895.9
16253.2
21818.7
20956.7
22929.7
24113.4
20164.4
20105.1
21323.1
20320.4
19214.3
14253.7
19155.2
14320.5
17000.8
15388.7
18541.2
20544.2
19919.3
21150.8
21930.5
19430.8
19540.7
20079.9
19238.7
17750.2
13755.2
17721.7
13843.8
15530.9
13838
17107.4
18855.3
18483.2
19004.6
19386.2
18195.6
18320.8
18464.3
17951.3
16773.6
13401.2
16560
13139.2
14840.5
12611.4
16691.5
17220.7
17006.4
17318.8
17492.8
16813.9
16878.9
17123.7
16715.8
15699.2
13657.8
15584.8
13345.4
14124.6
12574.8
16820
16325.3
16181.7
16351.8
16436.4
15867.7
15929.1
16300
16037.1
15355.9
14539.5
15280.8
14386.2
14100.1
12976.9
17211.2
15682.4
15550.9
15777.1
15831.3
15300.1
15549.6
15705.1
15588.2
15176.6
15090.6
15162
15009.1
14115.4
13423.9
17794.6
11754.1
6670.67
19340.5
12705
21149.4
15639.8
33151.6
41146.6
43623.5
53420.9
28250.7
24525.8
17915.6
14238.3
8727.56
5810.79
19991.5
20373.5
17248.7
20225
27017.3
24030.2
31241.4
25195.5
8240.91
5915.31
4575.89
3416.93
10018.5
8161.17
6110.25
4966.13
18376.7
19020
18721.7
15710
14505
11401.3
11434.5
13003.1
18415.5
18345.3
38736.1
40061.3
27371.6
28219.5
15705.1
13243.1
17056.3
12151.9
7933.36
8160.79
6424.22
9113.47
3333.93
4056.62
8961.01
12406
5359.98
6285.5
9898.41
16802.9
6877.52
11326.1
2615.61
6720.96
2176.96
5008.56
17926.4
22167.1
18557.3
22110.3
21909.7
22098.6
22373.3
21852.7
15830.5
21479.9
16218.7
21192.4
18305.1
21979.2
18312.9
21939.2
22593.6
21595.4
22534.5
21401.1
14643.6
21581.8
14146.2
21665.3
17981.5
21209.4
22702.6
31822.5
19049
24541.3
22504.6
34626.8
17046.7
18645.2
22786.9
30562.5
16867
17436
23030.8
30317.5
5396.23
7119.07
13826.6
24378
6785.77
7740.67
18014
27899.9
8414.51
8508.73
22764.9
31015.6
24714.6
26385.2
21059.7
20482.1
29968
26523.2
25167.9
21476.2
18722.7
34330.1
24192.9
23987.8
21498.7
21558.8
39116.9
2063.93
2500.81
4437.88
10326.8
2987.98
3394.66
6242.7
11645.7
4433.21
3757.8
8447.01
13282.4
26173.5
25714.4
23702
23175.5
20471.2
18615.2
15571.5
13712.5
11077.3
15510.3
23875.1
22939.7
24169.3
23671.4
21126.1
19717.2
17599.3
15733.5
11789.7
15615.7
24000.1
26989.5
23949.2
27681.7
23110.3
23875.6
22579.8
24077.4
21926.9
22291.4
21742.9
21633.1
23768.5
27809.1
23667.8
27792.6
21930.7
24391
21757.5
24343.8
22011.8
22240.9
22010.9
22231.2
18529.6
17611.1
11971.9
13343.9
18408.9
17156.4
11796.7
13420.2
18782.8
17553.1
12229.7
13386.3
18858.6
17374.1
12608.8
13389.7
1677.43
1119.56
768.477
973.818
657.457
610.283
2377.19
1396.87
1047.09
1928.25
1534.91
1311.61
2731.62
2233.84
2224.33
3372.76
2732.58
2440.8
24372.1
21803.7
20036
22513.1
20690.8
19268.7
16206.3
14908.6
14192.7
11086.5
9503.85
8826.89
5147.88
3747.51
3152.87
22089.3
20247.1
18726.5
22782.6
20549.2
18851
16957.4
14399.5
12957.5
11115.5
8777.45
7820.07
5470.36
3724.83
2965.67
27337.9
26697.6
29818.7
26708.5
30702.9
26714.3
37123.9
28177.6
20968.5
21369
20689.4
19304
23698.3
22276.9
23293.4
19879.9
23094.9
22888
21264.1
22697.8
28238.2
25414.1
28162.7
28613.3
30632.5
31701.2
23440.8
24341.5
20982.6
20376.9
25488.6
26167.5
16546.1
8952
15486.3
9907.15
16772.1
9024.07
15437.3
9837.47
16554.9
9071.18
15405.6
10250.2
15000.6
10724.1
15191.8
10637.9
21306.4
18176.4
21226.1
18174.6
23553.9
21236.5
23833.7
21053.2
20767.8
15158.6
21620.9
14939.9
21724.1
18102.4
22011.7
17902.6
24476.4
20897
24506.9
20636.2
20594.1
15215.4
20548
15125.1
13622.2
9113.82
12004.5
7752.28
12675.5
8168.57
11524.9
7247.8
13970.8
9682.43
12205.9
7988.45
13996.6
10028.8
12178.1
8046.95
2588.01
1345.83
4768.35
2573.63
2777.02
1672.87
5097.08
3103.68
3416.74
2524.36
5643.88
4058.2
13155.1
20383
9494.21
9114.66
6526.17
19933.7
13873.9
8148.71
8192.5
5381.26
20767.8
16336.3
12986.6
10119.8
6362.09
714.681
531.423
1481.07
1102.46
1036.41
714.763
2108.73
1681.25
1795.12
1385.98
3054.12
2490.18
20190.5
19458.4
13670.3
13039.1
8888.13
8905.33
7488.03
6836.39
4605.77
3778.41
18967.5
17182.5
14687.7
12836.6
11431.3
10097.8
8706.49
7813.9
5618.23
5512.47
15078.3
12147
15183.4
11872.1
18152.3
15021.8
18129.3
14835.2
12700.5
10250.1
12314.3
10274.8
15196.2
11697.9
15105.7
11682.4
18069.3
15129.9
17900.7
15090
12934.4
10097.5
12913.8
10231.6
9901.48
8334.29
6614.58
6907.37
9536.87
8146.28
6312.34
6543.06
10323.5
8500.45
6783.48
7308.09
10567.1
8499.56
7047.79
7413.51
1687.12
1482.26
1226.94
7343.93
3920.03
3199.11
1670.03
1643.64
1459
8032.83
4694.91
3978.5
2303.24
2573.96
2634.54
8920.14
5901.9
5251.75
18187.9
16860.1
15924.3
12418.1
11936.7
11637.1
9041.1
8854.13
8807.52
7729.19
7420.3
7211.11
10198.1
7314.12
6597.18
15537.3
14179.6
13276.3
11542.7
10633
10118.2
9573.9
8798.61
8364.19
9169.38
8073.96
7442.72
12425
8262.42
7399.48
4956.83
3107.68
2163.46
1735.83
5574.85
3372.79
2281.18
1778.34
4981.55
3104.88
2168.38
1748.6
5697.57
3444.24
2329.42
1803.94
4969.43
3073.07
2177.75
1748.54
5813.25
3488.35
2386.29
1814.75
6256.94
3693.51
2432.57
1873.2
6444.15
3836.73
2506.33
1939.13
5298.26
3271.54
2266.84
1774.59
4338.22
2871.14
2079.99
1703.59
4650.28
2963.91
2117.59
1659.34
3994.95
2706.54
1997.48
1637.42
5733.86
3504.45
2371.25
1849.21
4544.43
2991.74
2132.55
1755.36
5980.36
3663.44
2447.02
1905.86
4635.87
3078.48
2177.96
1788.22
3741.69
2668.36
1973.2
1648.51
2428.5
2142.07
1740.55
1549.82
3753.82
2655.49
1970.28
1645.52
2539.39
2172.21
1750.79
1559.22
3845.89
2654.74
1982.98
1656.25
2868.99
2269.43
1789.96
1597.14
3801.74
2590.75
1948.98
1689.7
3153.41
2337.77
1841.04
1591.3
3536.69
2515.23
1904.47
1613.5
1111.92
1716.26
1387.89
420.7
-355.289
1479.04
1244.82
442.121
1349.42
1795.34
1419.17
443.739
-64.91
1567.88
1272.66
451.757
1795.43
1934.61
1466.73
442.318
431.772
1715.45
1312.39
456.833
2343.55
2101.09
1538.37
480.108
964.863
1880.15
1370.47
476.418
2710.22
2254.49
1627.48
558.215
1119.06
2006.27
1424.68
493.584
2894.74
2424.85
1666.91
531.744
834.383
2143.41
1526.17
523.977
2822.03
2349.43
1637.07
531.873
790.968
2079.81
1474.68
505.976
2919.64
2478.42
1689.06
496.428
782.316
2197.95
1559.96
527.154
2981.52
2534.56
1733.47
506.877
885.353
2256.96
1601.2
539.97
1513.72
1116.94
747.274
425.284
137.708
1497.49
1114.62
747.794
425.837
137.897
1533.92
1126.83
751.931
427.391
138.313
1522.83
1127.27
754.032
428.731
138.741
1571.01
1140.21
757.715
429.951
139.046
1553.22
1141.52
761.042
432.004
139.702
1575.86
1157.72
770.292
436.591
141.079
1612.91
1180.92
783.426
443.115
143.041
1608.55
1156.25
766.034
433.94
140.231
1716.34
1175.72
771.493
435.93
140.768
1616.37
1152.08
762.028
431.725
139.539
1714.05
1168.66
767.061
433.684
140.082
1623.09
1170.45
774.306
438.072
141.479
1747.71
1189.5
779.021
439.661
141.896
1660.22
1193
786.665
444.161
143.31
1787.13
1209.62
789.721
444.921
143.484
1555.12
1122.64
747.266
424.831
137.537
1634.43
1129.05
747.449
424.567
137.436
1574.3
1130.48
750.741
426.363
137.972
1649.92
1134.99
750.105
425.744
137.772
1611.04
1142.89
755.963
428.656
138.621
1681.43
1145.19
754.616
427.757
138.342
1670.13
1157.08
761.242
430.905
139.252
1719.24
1156.12
759.744
430.084
138.996
1725.93
1164.38
764.236
432.245
139.637
10251.8
15827.7
10772.6
16150.3
11447.2
16471.8
11874.7
16635.2
11332.9
15914.2
10426.4
11759.1
10462.3
12370.6
10471.8
11635
10647.9
11765.8
9137.02
1557.18
332.52
74.6298
13.2246
10164.5
2893.19
702.652
159.519
28.2534
9217.97
1552.74
329.704
73.7372
13.0316
10242.5
2880.72
697.341
157.598
27.6784
9269.57
1539.77
324.319
72.2418
12.7429
10273.5
2860.01
688.873
155.153
27.2132
9142.27
1486.47
310.395
68.9869
12.1633
10109.3
2789.28