/*--------------------------------*- C++ -*----------------------------------*\
| =========                 |                                                 |
| \\      /  F ield         | OpenFOAM: The Open Source CFD Toolbox           |
|  \\    /   O peration     | Version:  2306                                  |
|   \\  /    A nd           | Website:  www.openfoam.com                      |
|    \\/     M anipulation  |                                                 |
\*---------------------------------------------------------------------------*/
FoamFile
{
    version     2.0;
    format      ascii;
    arch        "LSB;label=32;scalar=64";
    class       volVectorField;
    location    "2.6";
    object      flux;
}
// * * * * * * * * * * * * * * * * * * * * * * * * * * * * * * * * * * * * * //

dimensions      [0 1 -1 1 0 0 0];

internalField   nonuniform List<vector> 
5712
(
(-0.259007 0.459501 0.283007)
(-0.331015 0.264939 0.930304)
(-0.616101 0.745601 0.224382)
(-0.898795 0.488355 0.954192)
(-0.916686 0.813009 0.168749)
(-1.58271 0.601571 0.987997)
(-0.705922 1.27727 0.267057)
(-1.79815 1.58121 1.52635)
(-0.57533 1.67831 0.328389)
(-1.26384 2.05193 2.09943)
(-0.859994 1.08497 0.325563)
(-1.30766 0.942204 1.5272)
(-0.772292 0.689405 0.313653)
(-1.01153 0.545974 1.26632)
(-0.339409 0.345889 0.325944)
(-0.387771 0.233899 1.13075)
(-0.576134 0.773245 0.197177)
(-0.659738 0.79282 0.121227)
(-0.746142 0.665207 0.527065)
(-0.740108 0.782503 0.311758)
(-0.588551 1.04438 0.193571)
(-0.728356 0.934748 0.104207)
(-0.867595 1.20304 0.578515)
(-0.779499 0.975726 0.287046)
(-0.209957 0.325106 0.214747)
(-0.157038 0.234918 0.15456)
(-0.261299 0.182435 0.689151)
(-0.175068 0.135457 0.48218)
(-0.486211 0.389724 0.162324)
(-0.387217 0.317802 0.115743)
(-0.831472 0.235894 0.678028)
(-0.600479 0.190275 0.490038)
(-0.645038 0.704116 0.380488)
(-0.66959 0.732877 0.160687)
(-0.714395 0.721119 0.327766)
(-0.678353 0.611978 0.145567)
(-0.2481 0.564446 0.149986)
(-0.195627 0.438973 0.353801)
(-1.52967 0.440795 1.32338)
(-2.04824 0.500042 0.359171)
(-0.988014 0.710819 0.473215)
(-1.2133 0.706708 0.160761)
(-2.06071 1.48753 1.70813)
(-2.67361 1.53718 0.464569)
(-1.06652 1.05645 0.44463)
(-1.22082 1.08731 0.154681)
(-1.13225 0.599988 0.942825)
(-1.60007 0.505987 0.292882)
(-0.987374 0.655161 0.483411)
(-1.30959 0.467542 0.169015)
(-0.576249 0.304725 0.817679)
(-0.9306 0.312373 0.26031)
(-0.10979 0.247708 0.22299)
(-0.03694 0.340748 0.110555)
(-0.115791 0.129443 0.335897)
(-0.0416718 0.154381 0.130243)
(-0.331713 0.340012 0.241109)
(-0.133638 0.458701 0.130522)
(-0.456112 0.201975 0.327943)
(-0.16746 0.233991 0.125124)
(-0.323279 0.378181 0.308089)
(-0.124227 0.625298 0.175168)
(-0.345904 0.261463 0.282542)
(-0.110769 0.424502 0.122021)
(-0.590584 0.0999245 0.421222)
(-0.187689 0.253043 0.150818)
(-0.762443 0.0831248 0.145126)
(-0.256932 0.18914 0.0504895)
(-0.939398 0.7007 0.475753)
(-0.465188 0.864723 0.32784)
(-0.859915 0.720519 0.295399)
(-0.51005 0.859572 0.215039)
(-0.884028 0.858055 0.538038)
(-0.571719 0.86772 0.442195)
(-0.777249 0.871267 0.294306)
(-0.586113 0.854925 0.254756)
(-0.673705 0.611556 0.277631)
(-0.39994 0.827501 0.185836)
(-0.672955 0.630819 0.388421)
(-0.341707 0.818325 0.257173)
(-0.88698 0.708539 0.19537)
(-0.568638 0.852756 0.143148)
(-0.888842 0.707623 0.100064)
(-0.574298 0.850249 0.0818544)
(-0.820543 0.876912 0.190321)
(-0.621177 0.842926 0.164449)
(-0.830417 0.873086 0.0994694)
(-0.624416 0.834329 0.0957593)
(-0.72795 0.564265 0.186116)
(-0.46291 0.830447 0.121037)
(-0.754119 0.544297 0.0960105)
(-0.474639 0.833112 0.0611312)
(-0.686902 0.684014 0.246473)
(-0.296347 0.797428 0.133487)
(-0.316279 0.864039 0.18322)
(-0.383595 1.19773 0.222792)
(-0.689809 0.723845 0.334922)
(-0.323517 0.916826 0.238037)
(-0.27493 0.85571 0.263492)
(-0.387236 1.29574 0.379498)
(-0.727744 0.64891 0.163977)
(-0.295423 0.703839 0.0773345)
(-0.359297 0.867966 0.108473)
(-0.387382 1.15412 0.128062)
(-0.764014 0.642164 0.081888)
(-0.302797 0.659531 0.033804)
(-0.391267 0.877542 0.0470327)
(-0.405303 1.14665 0.0475158)
(-0.14231 0.198839 0.289369)
(-0.155214 0.25811 0.519992)
(-0.0476224 0.50547 0.197097)
(-0.0922023 0.873686 0.581609)
(-0.417742 0.248309 0.340786)
(-0.441243 0.280774 0.509968)
(-0.16034 0.654858 0.243136)
(-0.281917 1.00029 0.61065)
(-0.534933 0.31193 0.389238)
(-0.595755 0.314552 0.463212)
(-0.255023 0.835824 0.314763)
(-0.432511 1.12736 0.598799)
(-0.489532 0.963322 0.472749)
(-0.0474706 1.04039 0.572305)
(-0.535046 0.809542 0.348313)
(-0.654989 0.776479 0.333374)
(-0.352798 1.11004 0.366644)
(-0.0340494 1.04964 0.570904)
(-0.300197 0.986964 0.518761)
(-0.478348 0.827573 0.501866)
(-0.768218 0.713688 0.510525)
(-0.524585 1.26251 0.740852)
(-0.38706 0.955325 0.463734)
(-0.467364 0.939265 0.35025)
(-0.405436 0.832234 0.298224)
(-0.347207 0.819548 0.333127)
(-0.543186 1.4524 0.527453)
(-0.137631 0.0778844 0.599831)
(-0.114165 0.0931579 0.533294)
(-0.0783567 0.165172 0.696834)
(-0.0778752 0.368874 0.666464)
(-0.389019 0.111111 0.5492)
(-0.330464 0.124813 0.507054)
(-0.232284 0.230538 0.689396)
(-0.221344 0.41807 0.653543)
(-0.48708 0.167214 0.475855)
(-0.416378 0.141286 0.462096)
(-0.303551 0.316395 0.648223)
(-0.27299 0.485881 0.63105)
(-0.235334 1.04445 0.415429)
(-0.298341 1.04128 0.323973)
(-0.483717 0.938454 0.378317)
(-0.499974 0.93207 0.326284)
(-0.553425 0.797634 0.408709)
(-0.504219 0.73893 0.360319)
(-0.623437 0.601347 0.435463)
(-0.544982 0.535773 0.413437)
(-0.41588 0.419311 0.59976)
(-0.34977 0.5756 0.608751)
(-0.359143 0.948399 0.38879)
(-0.381778 0.923594 0.333701)
(-0.472792 0.951692 0.364343)
(-0.378915 0.943354 0.343814)
(-0.428962 0.822536 0.371104)
(-0.317705 0.776153 0.386379)
(-0.369597 0.67572 0.415487)
(-0.259304 0.608335 0.459692)
(-0.42657 0.448403 0.543105)
(-0.28153 0.585088 0.620372)
(-0.406375 0.939281 0.319103)
(-0.196734 1.06017 0.250101)
(-0.347694 0.935456 0.220101)
(-0.380218 1.08444 0.281493)
(-0.498924 0.911686 0.437393)
(-0.654755 0.947913 0.535507)
(-0.54848 0.888573 0.304185)
(-0.800728 0.952169 0.48294)
(-0.275642 0.849458 0.184278)
(-0.309472 0.865243 0.244028)
(-0.359174 0.842889 0.273245)
(-0.122938 0.840876 0.224483)
(-0.309415 0.927561 0.0522158)
(-0.5988 1.08829 0.187207)
(-0.293273 0.922746 0.0277552)
(-0.640785 1.08663 0.0674847)
(-0.542782 0.861781 0.155715)
(-0.987594 0.962618 0.325605)
(-0.552127 0.854062 0.0580284)
(-1.04673 0.959691 0.113232)
(-0.232608 0.85272 0.0231085)
(-0.512383 0.863333 0.157222)
(-0.210876 0.85217 0.0136178)
(-0.544873 0.862548 0.0551331)
(-0.320251 0.711606 0.179982)
(-0.245565 0.676938 0.183101)
(-0.443259 0.457639 0.204434)
(-0.178481 0.507205 0.125515)
(-0.331881 0.706192 0.283942)
(-0.0743094 0.65838 0.225744)
(-0.387769 0.450172 0.333996)
(-0.037772 0.506874 0.228035)
(-0.306931 0.721992 0.0402872)
(-0.36487 0.675486 0.10015)
(-0.464041 0.467924 0.101111)
(-0.215899 0.510398 0.0564952)
(-0.253273 0.724991 0.0569237)
(-0.429155 0.668849 0.0742957)
(-0.41005 0.482618 0.0810435)
(-0.282415 0.511233 0.0610318)
(-0.0918119 0.0645188 0.422285)
(-0.0815806 0.044755 0.25541)
(-0.07399 0.0316308 0.0798474)
(-0.0657551 0.0380566 0.479)
(-0.0608003 0.0269773 0.273515)
(-0.0549725 0.0253051 0.0892973)
(-0.272949 0.0893162 0.404814)
(-0.227378 0.0552714 0.252712)
(-0.199266 0.0426272 0.0848058)
(-0.173869 0.0756551 0.472262)
(-0.142316 0.0619557 0.274012)
(-0.125054 0.0542438 0.0892224)
(-0.33778 0.105592 0.372593)
(-0.295129 0.0908838 0.231837)
(-0.274317 0.0924275 0.0759111)
(-0.209888 0.133681 0.461844)
(-0.174307 0.111372 0.275871)
(-0.166042 0.101044 0.091963)
(-0.265047 1.00832 0.208853)
(-0.238026 0.924258 0.111005)
(-0.233467 0.863226 0.0293435)
(-0.438851 0.923713 0.262346)
(-0.339953 0.868273 0.171908)
(-0.289012 0.821129 0.0598337)
(-0.409483 0.660504 0.3094)
(-0.308686 0.62189 0.213297)
(-0.253521 0.600952 0.0734743)
(-0.43071 0.44473 0.355536)
(-0.345677 0.393 0.228979)
(-0.303175 0.371481 0.0757947)
(-0.262144 0.203271 0.458205)
(-0.176305 0.153459 0.284095)
(-0.139301 0.131569 0.0993722)
(-0.631678 0.908839 0.249711)
(-0.554528 0.854872 0.13823)
(-0.485462 0.805276 0.0431331)
(-0.402504 0.927551 0.244148)
(-0.340458 0.858812 0.174947)
(-0.287089 0.802509 0.0657388)
(-0.353517 0.683307 0.286797)
(-0.280103 0.597994 0.211708)
(-0.22783 0.548933 0.0773795)
(-0.293619 0.443397 0.359135)
(-0.216428 0.362492 0.251306)
(-0.169895 0.329701 0.0894785)
(-0.296719 0.216596 0.463002)
(-0.16793 0.153094 0.286911)
(-0.0971061 0.124411 0.101388)
(-0.409624 1.0628 0.0118232)
(-0.556276 1.044 0.0798446)
(-0.323055 1.15467 0.112426)
(-0.418805 1.0397 0.162969)
(-0.437975 1.18832 0.0853334)
(-0.644985 1.04065 0.0985226)
(-0.390417 1.43103 0.214803)
(-0.570177 1.09295 0.204422)
(-0.00233274 0.825857 0.0239831)
(-0.029831 0.842266 0.0416145)
(0.0195091 0.814342 0.0256132)
(-0.00435204 0.757642 0.0433618)
(-0.11871 0.926789 0.0194425)
(-0.134995 0.876421 0.0566942)
(-0.0491717 0.908006 0.0347671)
(-0.0267533 0.777652 0.0744245)
(-0.0282979 0.898033 0.12867)
(-0.0971492 0.894373 0.0630702)
(-0.373492 0.829612 0.163035)
(-0.546544 0.891027 0.0942507)
(-0.265586 1.11107 0.0872132)
(-0.144298 0.993313 0.151926)
(-0.390139 1.093 0.135359)
(-0.387069 1.10855 0.038762)
(-0.598087 1.18448 0.239075)
(-0.658472 1.22373 0.0595679)
(0.0233328 0.909821 -0.0734694)
(0.161565 0.943398 0.0309652)
(-0.300153 0.816271 0.0726884)
(-0.283037 0.791936 0.0549692)
(-0.282277 0.993185 0.0508679)
(-0.217837 1.01765 0.0480616)
(-0.0414055 0.65028 0.396741)
(-0.0222607 0.344296 0.186479)
(-0.0263511 0.605604 0.108655)
(-0.0103758 0.382049 0.0689523)
(-0.0809921 0.659613 0.403053)
(-0.010187 0.347296 0.194106)
(0.0131725 0.603161 0.136246)
(0.0334044 0.379232 0.086931)
(-0.368561 0.65173 0.398268)
(-0.0983967 0.349338 0.209271)
(-0.247931 0.602403 0.198165)
(-0.0662522 0.395701 0.141991)
(-0.356552 0.584957 0.141526)
(-0.10966 0.414316 0.10365)
(-0.431368 0.591503 0.0717051)
(-0.140282 0.410837 0.0692477)
(-0.349904 0.838608 0.502042)
(-0.474724 0.720927 0.447162)
(-0.324009 0.830852 0.236877)
(-0.463677 0.718107 0.246378)
(-0.557473 0.924042 0.533889)
(-0.59251 0.837745 0.501735)
(-0.532538 0.930254 0.263598)
(-0.561971 0.827518 0.266351)
(-0.227068 0.8148 0.213673)
(-0.38016 0.601173 0.220618)
(-0.261616 0.85324 0.436534)
(-0.377211 0.594868 0.366563)
(-0.343688 0.847271 0.142147)
(-0.447192 0.713588 0.148774)
(-0.379065 0.856986 0.0807439)
(-0.452361 0.705124 0.0910978)
(-0.554821 0.952093 0.163083)
(-0.552506 0.819486 0.162226)
(-0.581077 0.951739 0.0907464)
(-0.555378 0.808462 0.0968483)
(-0.229162 0.804902 0.126036)
(-0.368505 0.602065 0.135761)
(-0.24926 0.801596 0.0720737)
(-0.375904 0.598102 0.0874067)
(-0.00118403 0.533971 0.19338)
(-0.0615612 0.350426 0.139343)
(-0.305336 0.475286 0.194324)
(-0.200063 0.295411 0.142819)
(0.0216917 0.499069 0.300411)
(-0.0448462 0.313271 0.184562)
(-0.282944 0.457707 0.288589)
(-0.177411 0.27525 0.197632)
(-0.0190142 0.546104 0.117524)
(-0.0712252 0.372933 0.10089)
(-0.312603 0.482334 0.123289)
(-0.217618 0.304648 0.0925932)
(-0.0372464 0.546278 0.0671046)
(-0.0820977 0.386982 0.0638967)
(-0.315005 0.480823 0.078651)
(-0.225959 0.306756 0.0543827)
(0.0265561 0.0998949 0.475116)
(0.0308545 0.0507317 0.342186)
(-0.00753715 0.17798 0.246942)
(-0.00188051 0.0874135 0.258429)
(0.114005 0.107103 0.473214)
(0.116111 0.0636166 0.349031)
(0.00621798 0.190107 0.248597)
(0.0119521 0.107904 0.25721)
(0.0195817 0.133192 0.489908)
(0.0759795 0.0987474 0.359606)
(-0.0733218 0.21197 0.252185)
(-0.0482527 0.147094 0.249437)
(0.408973 0.52595 0.550936)
(0.378353 0.811836 0.587113)
(0.221141 0.377869 0.508959)
(0.167007 0.361448 0.347428)
(0.0122323 0.247956 0.20597)
(0.415854 0.797908 0.556522)
(0.431926 0.558514 0.523874)
(0.172417 0.327094 0.495793)
(0.253573 0.328095 0.418859)
(0.0270645 0.20184 0.284067)
(-0.404455 0.826355 0.521838)
(-0.32115 0.653858 0.478286)
(-0.291001 0.521267 0.38876)
(-0.278348 0.404185 0.306478)
(-0.177532 0.239749 0.200766)
(0.0323231 0.025805 0.300969)
(0.0308004 0.019664 0.275568)
(0.000129385 0.042867 0.287393)
(-0.0047575 0.0281998 0.3371)
(0.102231 0.0389919 0.30737)
(0.103451 0.0268448 0.268364)
(-6.18884e-05 0.0679864 0.288915)
(-0.0113536 0.0523856 0.331255)
(0.102395 0.0711799 0.315696)
(0.128534 0.0573375 0.261832)
(-0.034893 0.107086 0.28971)
(-0.0507026 0.0858599 0.324224)
(0.205312 0.815402 0.420277)
(0.0956561 0.799795 0.29617)
(0.328905 0.557089 0.400172)
(0.209528 0.54384 0.280472)
(0.145853 0.363481 0.323358)
(0.112749 0.375987 0.265263)
(0.163549 0.305384 0.310868)
(0.144796 0.289661 0.272196)
(-0.0271241 0.170891 0.267655)
(-0.0687654 0.139878 0.319255)
(-0.149377 0.762056 0.348815)
(-0.0945735 0.702588 0.302641)
(-0.0418938 0.595404 0.314771)
(0.0417433 0.532986 0.276892)
(-0.0441905 0.466202 0.275757)
(0.0289129 0.424914 0.253795)
(-0.0774423 0.353186 0.251957)
(-0.0225062 0.329399 0.255847)
(-0.0991342 0.211665 0.212188)
(-0.114607 0.218456 0.304342)
(-0.211584 0.607145 0.281309)
(-0.194782 0.502416 0.190808)
(-0.400979 0.609081 0.187122)
(-0.243491 0.488051 0.111329)
(-0.323572 0.723946 0.361288)
(-0.327989 0.609528 0.278508)
(-0.491314 0.720054 0.251769)
(-0.399504 0.597774 0.201675)
(-0.322761 0.513933 0.156522)
(-0.193564 0.428241 0.0953245)
(-0.163645 0.499726 0.227258)
(-0.163976 0.431707 0.17054)
(-0.472124 0.608085 0.189704)
(-0.210583 0.479054 0.0896979)
(-0.519288 0.603993 0.0700691)
(-0.236013 0.477923 0.0404348)
(-0.547846 0.716089 0.198227)
(-0.407752 0.607276 0.142966)
(-0.584677 0.708685 0.0698811)
(-0.436634 0.604875 0.0577915)
(-0.3901 0.522465 0.166872)
(-0.159028 0.420444 0.0757806)
(-0.436708 0.521417 0.0661624)
(-0.183763 0.426046 0.0352429)
(-0.264565 0.399873 0.13558)
(-0.215765 0.349334 0.128442)
(-0.215942 0.253513 0.125071)
(-0.320905 0.280029 0.186831)
(-0.174512 0.386022 0.188927)
(-0.198955 0.343059 0.183747)
(-0.185922 0.241092 0.16042)
(-0.297702 0.266114 0.240848)
(-0.3038 0.416809 0.135171)
(-0.214643 0.35592 0.0907662)
(-0.243276 0.26007 0.0892686)
(-0.367821 0.297562 0.125579)
(-0.36618 0.42714 0.0420277)
(-0.23332 0.356132 0.0211368)
(-0.299707 0.270976 0.011551)
(-0.380154 0.302082 0.0249962)
(0.0327165 0.0817422 0.192774)
(0.0358691 0.0725652 0.0802791)
(0.040761 0.0603218 0.0236016)
(1.44395e-06 0.362249 0.225455)
(0.0124362 0.192653 0.0579407)
(0.0142042 0.157474 0.015361)
(0.119916 0.0786687 0.193329)
(0.130142 0.0785832 0.0860616)
(0.131139 0.0701059 0.0263535)
(0.0070037 0.389705 0.223926)
(0.0357647 0.226494 0.0599996)
(0.0364272 0.192254 0.0166649)
(0.150723 0.107158 0.17738)
(0.172242 0.12164 0.0837893)
(0.178413 0.125362 0.0215812)
(-0.0297309 0.425792 0.218349)
(0.0343448 0.281632 0.0606187)
(0.0476588 0.251672 0.0141317)
(0.0531047 0.7671 0.181422)
(0.0460346 0.729083 0.0904446)
(0.0340604 0.699044 0.0193566)
(0.158359 0.534501 0.170267)
(0.163906 0.527973 0.0812886)
(0.154002 0.522276 0.0186628)
(0.129751 0.397163 0.173695)
(0.149602 0.399979 0.0829006)
(0.148307 0.403208 0.0222174)
(0.160475 0.348979 0.178563)
(0.176733 0.343014 0.083476)
(0.174083 0.337043 0.0173956)
(-0.063756 0.480053 0.216228)
(0.0145113 0.346115 0.0590568)
(0.0210143 0.314284 0.00876742)
(-0.136901 0.652046 0.232014)
(-0.0770084 0.61276 0.115173)
(-0.0395481 0.584444 0.0299966)
(0.0440387 0.495942 0.215985)
(0.0931159 0.471669 0.106923)
(0.11936 0.456855 0.0288931)
(0.0408364 0.421701 0.203084)
(0.104811 0.399857 0.100163)
(0.132837 0.385955 0.0290057)
(0.015883 0.415883 0.199654)
(0.0862583 0.375105 0.0847318)
(0.106753 0.349976 0.0205721)
(-0.106429 0.58196 0.233615)
(0.0213498 0.390013 0.0547169)
(0.0368578 0.352539 0.0132596)
(0.000920543 0.184256 0.0741742)
(0.00166412 0.11605 0.0268701)
(0.00232903 0.0869895 0.00522346)
(0.00357801 0.0809233 -0.00882188)
(0.0110006 0.210139 0.0308165)
(0.00647468 0.127682 0.0118143)
(0.00554226 0.0924029 0.00318135)
(0.00556374 0.0828488 -0.0017964)
(-0.000263508 0.184894 0.0787015)
(0.00324557 0.115636 0.0295392)
(0.0079377 0.0871028 0.00754465)
(0.0127228 0.0815758 -0.00547923)
(0.0177806 0.214856 0.039134)
(0.0119556 0.130385 0.0164741)
(0.01364 0.0940971 0.00786524)
(0.0152151 0.0835394 0.00368058)
(-0.0104329 0.183571 0.0847494)
(0.00117841 0.113661 0.032985)
(0.0112574 0.0865128 0.0114724)
(0.0225261 0.0805403 -0.000391236)
(0.00604297 0.219011 0.0672026)
(0.00978519 0.131772 0.0319101)
(0.0131637 0.095471 0.0128493)
(0.015421 0.0826021 0.00312417)
(0.00127044 0.237039 0.0513469)
(0.00594831 0.140525 0.0296357)
(0.00655727 0.0986232 0.0114512)
(0.00660532 0.0871176 4.55772e-05)
(-0.00917694 0.244593 0.0486526)
(-0.00022371 0.146483 0.032688)
(0.00530345 0.102376 0.0198537)
(0.00924641 0.0909704 0.0121809)
(-0.0409642 0.196507 0.0705304)
(-0.00839256 0.121547 0.031728)
(0.00480349 0.0898338 0.0100834)
(0.0142391 0.0812082 -0.00750249)
(-0.0641238 0.15356 0.0607705)
(-0.0149124 0.10275 0.0269195)
(0.000846733 0.0807226 0.0119495)
(0.0241391 0.0780712 -0.00772687)
(-0.0290365 0.169087 0.0834578)
(-0.00361557 0.108098 0.032646)
(0.00816606 0.0827123 0.0105121)
(0.0204552 0.074784 -0.00571252)
(-0.0529506 0.139014 0.0758103)
(-0.0113833 0.0957822 0.0297665)
(8.24969e-05 0.0770444 0.0118582)
(0.0212253 0.074618 -0.0128394)
(-0.0433882 0.214743 0.0567532)
(-0.00999906 0.131641 0.0297513)
(0.00576577 0.0949921 0.0123836)
(0.0176748 0.0855093 -0.00223241)
(-0.0717398 0.162137 0.046807)
(-0.0177145 0.10783 0.023976)
(0.000780593 0.0831138 0.0130646)
(0.0283184 0.0808478 0.000230108)
(-0.0482932 0.224942 0.0422161)
(-0.0132695 0.138416 0.0264938)
(0.00516528 0.0985422 0.0162577)
(0.020902 0.0883812 0.0102883)
(-0.0772094 0.165702 0.0324043)
(-0.0202795 0.111403 0.0204615)
(-0.000148151 0.0849863 0.0139985)
(0.0296225 0.0822126 0.00849838)
(7.38615e-05 0.133194 0.0950187)
(0.000946175 0.0966532 0.0324442)
(0.0020018 0.0778441 0.00502424)
(0.0044585 0.0763848 -0.0174845)
(0.0012947 0.0756319 0.0950348)
(0.00130953 0.0729984 0.0300042)
(0.0012576 0.0665925 0.00698865)
(0.00409777 0.0716237 -0.0240068)
(0.00223827 0.133073 0.0949856)
(0.00327941 0.095805 0.0329714)
(0.00610735 0.0775327 0.00595136)
(0.0119856 0.0761138 -0.0166103)
(0.00621363 0.0797031 0.0921048)
(0.00448499 0.0740797 0.0292213)
(0.00384014 0.0669942 0.00735373)
(0.0110673 0.072027 -0.0232429)
(-0.0182623 0.135971 0.0932835)
(-0.00225572 0.0952363 0.0331845)
(0.00679944 0.0774619 0.00914824)
(0.0205446 0.0761701 -0.0118968)
(-0.00902091 0.0930413 0.0859516)
(0.00104375 0.0779661 0.0277046)
(0.00516517 0.068496 0.00917583)
(0.0195633 0.0738923 -0.0190769)
(-0.00482526 0.132584 0.0817712)
(0.00487656 0.0916587 0.0307352)
(0.00997208 0.0752569 0.0128051)
(0.0204771 0.077423 -0.00180375)
(-0.00209216 0.10426 0.0942677)
(0.00389681 0.0804791 0.0310918)
(0.00449574 0.0702153 0.0130839)
(0.0197424 0.0730963 -0.0223346)
(-0.0459718 0.119385 0.0734713)
(-0.00877768 0.0875985 0.0276198)
(0.00173997 0.0727731 0.0129697)
(0.0275568 0.0733508 -0.0052646)
(0.00336942 0.0146306 0.0760703)
(0.00187662 0.0534514 0.0212352)
(0.00144967 0.0510001 0.00633519)
(0.00307972 0.0152276 -0.0163626)
(0.00675735 -0.0570317 0.0304632)
(0.00277651 0.0422721 0.00773419)
(0.00150561 0.0442826 0.0017876)
(0.00142916 0.0165263 -0.00344652)
(0.00669777 0.0249307 0.0783453)
(0.00444228 0.0567983 0.0226618)
(0.0032784 0.0522559 0.00717323)
(0.00797885 0.0161405 -0.0155771)
(0.017162 -0.0435636 0.0316461)
(0.00737282 0.0460617 0.00835874)
(0.00383201 0.0454114 0.00232148)
(0.00369438 0.0169072 -0.00283097)
(0.00318866 0.0441242 0.0794119)
(0.00488885 0.0626907 0.0242707)
(0.00459594 0.0543249 0.00900437)
(0.0131556 0.0161106 -0.0136732)
(0.0213978 -0.0210056 0.032055)
(0.010339 0.0524046 0.00906631)
(0.00578352 0.0471591 0.0030457)
(0.00583521 0.0171473 -0.00206019)
(-0.00556579 0.0672677 0.0715023)
(0.00437222 0.0695531 0.0229282)
(0.00578957 0.0570025 0.0104193)
(0.0182624 0.0175806 -0.0108032)
(0.0160821 0.0023621 0.0310135)
(0.0111279 0.0592858 0.00937172)
(0.00690074 0.0495244 0.00419205)
(0.00744296 0.0179389 -0.000694508)
(-0.0248698 0.0817528 0.0653907)
(0.00033756 0.0756155 0.0228645)
(0.00341428 0.0602665 0.0115364)
(0.0176896 0.0207802 -0.00629332)
(0.00338977 0.00675805 0.0276144)
(0.00955709 0.0642267 0.00989249)
(0.0064888 0.0516914 0.0057677)
(0.00769192 0.0186249 0.00118875)
(-0.0534333 0.0873769 0.0458497)
(-0.00540194 0.0819313 0.0186724)
(0.00299172 0.0619151 0.00926584)
(0.0205272 0.0196176 -0.00176794)
(-0.0176977 -0.0104835 0.0259592)
(0.00236431 0.0687981 0.0130535)
(0.00425933 0.05556 0.00814063)
(0.00725939 0.0198006 0.00443031)
(-0.0418423 0.0851838 0.0529028)
(-0.00176866 0.0791325 0.0188511)
(0.00347106 0.0606878 0.00912359)
(0.0191675 0.0196449 -0.00446817)
(-0.0113033 -0.0113692 0.0261514)
(0.0055607 0.0666562 0.0112765)
(0.00557831 0.0536434 0.00695825)
(0.0078174 0.0191084 0.00282253)
(-0.0641351 0.087621 0.036999)
(-0.00993387 0.0839105 0.0182017)
(0.00143546 0.0631483 0.0103714)
(0.0222504 0.0181757 0.00178739)
(-0.0235621 -0.0139357 0.0234079)
(-0.000829856 0.0706864 0.0138694)
(0.00281668 0.0569738 0.00910748)
(0.00679381 0.01995 0.00599831)
(-0.0721731 0.0897596 0.0262154)
(-0.0144959 0.0860789 0.0166581)
(-0.000762758 0.0650886 0.0116631)
(0.0219709 0.0186541 0.00745336)
(-0.0290615 -0.00967125 0.0196719)
(-0.00437627 0.0729413 0.0139351)
(0.000901179 0.0586713 0.0100658)
(0.00587145 0.0204994 0.00778368)
(0.0016004 0.0797887 -0.000779817)
(0.000731856 0.0632674 0.000365976)
(0.000392812 0.0449362 0.000374274)
(0.000240798 0.0267171 0.000269339)
(0.000179765 0.00885436 0.000210076)
(0.00211731 0.0788552 -0.000111428)
(0.00112852 0.0631367 0.000244052)
(0.000646791 0.0449683 0.000210898)
(0.000406671 0.0267512 0.000148925)
(0.000305675 0.00886622 0.000116204)
(0.00381933 0.0807536 0.000444237)
(0.0017046 0.0637504 0.00102933)
(0.000912794 0.0451785 0.00076025)
(0.000562597 0.0268323 0.00051546)
(0.000423184 0.00888833 0.000395989)
(0.00480665 0.0800004 0.00121549)
(0.00253196 0.0637555 0.000998859)
(0.0014525 0.0452939 0.000657202)
(0.000917807 0.0269094 0.000433751)
(0.000692187 0.00891343 0.000330934)
(0.00506193 0.08254 0.001798)
(0.00213495 0.0644423 0.00184116)
(0.00112908 0.0454943 0.00125076)
(0.000695253 0.0269784 0.000835862)
(0.000524354 0.00893114 0.000640638)
(0.00647841 0.0813962 0.00497727)
(0.00336124 0.0645008 0.00338418)
(0.0019325 0.0456795 0.00213104)
(0.00122776 0.027097 0.00139416)
(0.000929163 0.00896984 0.00106129)
(0.00341138 0.0827148 0.00600893)
(0.00172575 0.0653636 0.00400492)
(0.000987706 0.0461915 0.00251839)
(0.000628619 0.0273607 0.00165069)
(0.000476025 0.00905085 0.00126001)
(0.00240052 0.0846809 0.00872256)
(0.00100569 0.0666163 0.00530931)
(0.000527859 0.0469272 0.00324582)
(0.0003268 0.027739 0.00210936)
(0.000245136 0.00916708 0.0016079)
(0.00511458 0.0844053 0.00318991)
(0.00218889 0.0652807 0.00269475)
(0.00117802 0.0459515 0.00176868)
(0.000733243 0.0272068 0.00117122)
(0.000551065 0.00900068 0.000892281)
(0.00243521 0.0901802 0.00339606)
(0.000894125 0.0663206 0.00253847)
(0.000453844 0.0462509 0.00163032)
(0.000276699 0.0273206 0.00107703)
(0.000206488 0.00903226 0.000820898)
(0.00538986 0.0847868 0.0021893)
(0.00255036 0.0650648 0.00215462)
(0.00143499 0.0457297 0.00144127)
(0.000906504 0.0270793 0.000962881)
(0.000685259 0.00895993 0.000737035)
(0.00229786 0.0900414 0.00398221)
(0.000889747 0.0659459 0.00262204)
(0.000465336 0.0460056 0.00162992)
(0.000285882 0.0271915 0.0010697)
(0.000213092 0.00899189 0.000813037)
(0.00392356 0.0852207 0.0041612)
(0.00142611 0.0660427 0.00322287)
(0.000712252 0.0464115 0.00208977)
(0.000432999 0.0274452 0.00138129)
(0.000323559 0.00907432 0.00105494)
(0.00230407 0.0918214 0.004543)
(0.000797947 0.0670596 0.00304054)
(0.000397084 0.0466698 0.00191175)
(0.000241909 0.0275358 0.00125562)
(0.000180867 0.00909881 0.000957342)
(0.00337811 0.0871154 0.00693641)
(0.000904767 0.0672562 0.00427839)
(0.000364317 0.0471034 0.00262143)
(0.000202729 0.0277981 0.00170464)
(0.000146222 0.00918278 0.00129873)
(0.00186338 0.093833 0.00579343)
(0.000426254 0.0681405 0.00353192)
(0.000156518 0.0472689 0.00216057)
(8.36571e-05 0.0278409 0.0014047)
(5.92596e-05 0.00919295 0.00106844)
(0.00133088 0.082048 -0.00145238)
(0.000551398 0.0635831 0.000193181)
(0.000285473 0.0449341 0.000278154)
(0.000171601 0.0266897 0.000206895)
(0.00012709 0.00884395 0.00016264)
(0.00096087 0.0863528 -0.000794972)
(0.000437631 0.0639335 6.24765e-05)
(0.00023679 0.0449435 0.000109215)
(0.000144262 0.0266739 8.285e-05)
(0.000107201 0.00883771 6.59921e-05)
(0.00325083 0.0829471 -0.000650112)
(0.00138684 0.0639635 0.00060903)
(0.000736142 0.0451142 0.000516914)
(0.0004487 0.0267732 0.000359065)
(0.000335178 0.00886819 0.000278652)
(0.00248218 0.0870623 -0.000508432)
(0.00115525 0.0642191 0.000209867)
(0.000635827 0.0450808 0.000192479)
(0.00039088 0.026738 0.0001351)
(0.000291509 0.00885643 0.000105961)
(0.00455625 0.0847656 0.000361033)
(0.00170867 0.0646021 0.00109202)
(0.000870293 0.0453988 0.000788011)
(0.000523125 0.0269044 0.000533819)
(0.000389702 0.00890629 0.000413273)
(0.00337769 0.0886252 0.000570363)
(0.00159679 0.064739 0.000698924)
(0.000888136 0.0453259 0.000461904)
(0.000547877 0.0268532 0.000303324)
(0.000411368 0.00889002 0.000233942)
(0.00412936 0.0877946 0.00259918)
(0.00196308 0.0653422 0.00211925)
(0.00111106 0.0456875 0.0013669)
(0.000699182 0.0270331 0.00090824)
(0.000529222 0.00894335 0.000698783)
(0.00230682 0.0904962 0.00172662)
(0.00121946 0.0653001 0.00133693)
(0.000700684 0.045607 0.000843989)
(0.00043752 0.026987 0.000556596)
(0.000331628 0.0089286 0.00042843)
(0.00214952 0.0906909 0.00478568)
(0.0010807 0.0657248 0.00277436)
(0.000625155 0.0458518 0.00167303)
(0.000397413 0.0271099 0.00108704)
(0.000300847 0.00896601 0.000826478)
(-0.0140523 0.362921 0.0617541)
(-0.0186304 0.555567 0.141328)
(-0.0320375 0.382166 0.0619781)
(-0.045747 0.568414 0.13965)
(-0.0344012 0.410979 0.0672619)
(-0.0575344 0.585789 0.138262)
(-0.0145618 0.432076 0.0802288)
(-0.047553 0.598344 0.143906)
(0.0108172 0.417777 0.0840458)
(-0.0113968 0.578896 0.148884)
(-0.0302727 0.391832 0.0333111)
(-0.0492451 0.440588 0.0525412)
(0.00429685 0.390606 0.0552217)
(0.00135428 0.458751 0.0889761)
(-0.0454424 0.395033 0.0174671)
(-0.0712175 0.438445 0.0254609)
(-0.056777 0.40241 0.00605005)
(-0.0807973 0.444594 0.00833582)
(-0.0236103 0.32013 0.323635)
(-0.00546101 0.0546941 0.0771543)
(-0.00122658 0.0116518 0.0176447)
(-0.000270188 0.00260534 0.00393206)
(-6.7569e-05 0.000460197 0.000974244)
(-0.00829164 0.355625 0.0880371)
(-0.00360663 0.101048 0.0236776)
(-0.000515165 0.0244736 0.0062887)
(-0.00013474 0.00553677 0.00142715)
(-5.76181e-05 0.000977711 0.000309271)
(-0.0725435 0.32438 0.320534)
(-0.0167071 0.0543975 0.0757777)
(-0.00376546 0.0114999 0.0173102)
(-0.000825358 0.00256091 0.0038246)
(-0.000206672 0.000451059 0.000954522)
(-0.0199254 0.359879 0.0895587)
(-0.00528019 0.100874 0.0264056)
(-0.00126825 0.0243283 0.00649774)
(-0.000265501 0.00547632 0.00150774)
(-7.07407e-05 0.000958577 0.000373527)
(-0.122118 0.329198 0.307348)
(-0.0281857 0.0544149 0.0721281)
(-0.00636874 0.0113994 0.0164094)
(-0.00140035 0.00252641 0.00362003)
(-0.000349852 0.000443927 0.000904335)
(-0.0314386 0.364261 0.0869275)
(-0.0088916 0.10092 0.0255488)
(-0.0021345 0.0241945 0.00627094)
(-0.000490711 0.00542382 0.00144793)
(-0.000122425 0.000947737 0.000359997)
(-0.164378 0.328481 0.283086)
(-0.0380539 0.0531091 0.0658186)
(-0.00863236 0.0110203 0.0149234)
(-0.00190348 0.00243516 0.00328844)
(-0.000476035 0.000427494 0.000821537)
(-0.0364807 0.362293 0.0846123)
(-0.0111525 0.0993776 0.024352)
(-0.00276469 0.0237262 0.00589913)
(-0.00064326 0.00530782 0.00134988)
(-0.000160264 0.000926271 0.000333764)
(-0.206148 0.313903 0.238626)
(-0.0481979 0.0494724 0.0551779)
(-0.0110078 0.0102407 0.0125138)
(-0.00243906 0.00226903 0.00276055)
(-0.000612414 0.000399138 0.000690381)
(-0.040077 0.34538 0.0802476)
(-0.013484 0.0948792 0.0224657)
(-0.00344447 0.022719 0.00538137)
(-0.000812555 0.00509559 0.00122344)
(-0.000204873 0.000890398 0.000301534)
(-0.246032 0.283028 0.114193)
(-0.0593133 0.0463864 0.0276067)
(-0.0137332 0.00991365 0.00636586)
(-0.00306808 0.00223191 0.00141398)
(-0.00077358 0.000395539 0.000354025)
(-0.0608315 0.289516 0.039192)
(-0.0185598 0.0833599 0.0111479)
(-0.00456991 0.0204797 0.0026476)
(-0.00104619 0.00466745 0.000591179)
(-0.000261072 0.00082313 0.000145291)
(-0.228363 0.291678 0.169322)
(-0.0548393 0.0470308 0.0403587)
(-0.012641 0.00993198 0.0092358)
(-0.00281254 0.00222201 0.00204179)
(-0.000706997 0.00039252 0.000510509)
(-0.047808 0.304933 0.0576947)
(-0.0158138 0.0876259 0.0162004)
(-0.00400578 0.0213395 0.00388195)
(-0.000934395 0.00482533 0.000881947)
(-0.000233387 0.000846549 0.000218803)
(-0.254337 0.279996 0.0672243)
(-0.0614292 0.0463394 0.0163837)
(-0.0142518 0.00995152 0.00379516)
(-0.00318899 0.00224604 0.000846983)
(-0.000805265 0.000398445 0.000212426)
(-0.0685868 0.284835 0.0218685)
(-0.0202891 0.0815666 0.0064751)
(-0.00492586 0.0200606 0.00152719)
(-0.00111252 0.00458669 0.000340666)
(-0.000276975 0.00081116 8.4489e-05)
(-0.265409 0.279411 0.023209)
(-0.0635782 0.0460617 0.00562162)
(-0.0147729 0.00988595 0.00130472)
(-0.0033043 0.00223246 0.000292059)
(-0.000833923 0.000395727 7.32597e-05)
(-0.0709979 0.285729 0.00872813)
(-0.021086 0.08126 0.00233177)
(-0.005167 0.0199377 0.000506022)
(-0.00108426 0.00456991 0.000142811)
(-0.000285706 0.000806944 2.72617e-05)
(-0.0205455 1.31588 0.00600768)
(-0.272051 1.86123 0.0205594)
(-0.248342 1.81966 0.179584)
(-0.0894934 1.2779 -0.0325479)
(0.0642279 0.755202 0.0297098)
(0.109871 0.794052 0.0318404)
(0.306723 1.11363 0.0928373)
(0.448473 1.16165 0.118829)
(0.0681644 0.869551 0.0746013)
(0.328877 0.973092 0.140116)
(-0.0632473 1.38086 0.117376)
(0.102821 1.88 0.181115)
(0.0987151 1.74406 0.14132)
(0.19437 2.30686 0.175426)
(0.365856 1.13995 0.0734911)
(0.517755 1.29766 0.0990349)
(0.554096 0.895983 0.0785793)
(0.69517 0.956056 0.0931971)
(0.226139 0.486799 0.0408859)
(0.292852 0.533307 0.0425104)
(-0.788953 0.197846 0.0916492)
(-0.572125 0.132312 0.067342)
(-0.19552 0.0381592 0.0203815)