/*--------------------------------*- C++ -*----------------------------------*\
| =========                 |                                                 |
| \\      /  F ield         | OpenFOAM: The Open Source CFD Toolbox           |
|  \\    /   O peration     | Version:  2306                                  |
|   \\  /    A nd           | Website:  www.openfoam.com                      |
|    \\/     M anipulation  |                                                 |
\*---------------------------------------------------------------------------*/
FoamFile
{
    version     2.0;
    format      ascii;
    arch        "LSB;label=32;scalar=64";
    class       volScalarField;
    location    "2.6";
    object      gradTy;
}
// * * * * * * * * * * * * * * * * * * * * * * * * * * * * * * * * * * * * * //

dimensions      [0 -1 0 1 0 0 0];

internalField   nonuniform List<scalar> 
5712
(
11487.5
6623.48
18640
12208.9
20325.2
15039.3
31931.6
39530.2
41957.9
51298.3
27124.2
23555.1
17235.1
13649.3
8647.23
5847.46
19331.1
19820.5
16630.2
19562.6
26109.5
23368.7
30076
24393.2
8127.66
5872.94
4560.87
3386.42
9743.1
7945.04
5897.34
4756.86
17602.9
18321.9
18028
15299.5
14111.2
10974.3
11019.9
12501.1
17770.5
17667.7
37188.2
38429.6
26411.4
27182.9
14999.7
12649.7
16379
11688.5
7618.13
7809.34
6192.71
8518.7
3236.08
3859.53
8500.29
11467.5
5049.37
5849.77
9454.53
15632.5
6536.57
10612.5
2498.11
6326.08
2078.12
4728.5
17517.5
21618.1
18013
21489.3
21451.4
21693
21781.7
21373.1
15288.9
20687.5
15770.5
20458.1
17713.5
21318.9
17690.6
21256.2
21922.8
21073.1
21827.2
20858.2
14106.6
20761.2
13607.4
20827.8
17100.4
19935.7
21601
29943.3
18096.1
22920.7
21392.7
32393.5
16222.7
17596
21699.2
28853.1
16054.1
16488.3
21938.5
28666.3
4970.98
6452.76
12636.7
21842.1
6207.71
7019.34
16371.4
25007.2
7798.25
7863.81
20895.6
28184.1
24083.1
26009.7
20238.6
19412
27751
26241.1
24674.1
20689.3
17842.2
31562.6
23883.1
23481.6
20805.8
20488.7
36310
1947.11
2328.95
4129.29
9221.86
2777.77
3120.34
5763.46
10451.8
4180.35
3532.14
7909.88
12147
26111.2
26032.1
23461.3
23301.7
19940.9
18473.3
15033.7
13394.3
10482.8
14390
23710
23089.9
23792.3
23583.8
20563.4
19403.8
16893
15208.4
11210.1
14627.2
23482
26504.2
23386.4
27110.9
22792.1
23697.8
22214.3
23804.2
21236.4
21631.1
21072.2
21021.9
23189
27207.3
23068.6
27165.6
21544.5
24065.4
21351.6
23992.3
21318
21583.3
21304.3
21563.7
17790.1
16923.4
11441
12680.1
17654.8
16459.5
11254.3
12671.9
18049.8
16887.2
11698.1
12760
18124.8
16721.2
12065.4
12780.8
1612.97
1118.88
790.769
951.414
674.433
632.627
2232.91
1381.79
1065.68
1891.38
1548.89
1356.09
2639.8
2272.1
2310.69
3342.02
2784.31
2526.09
25207.9
23106.4
21580.6
23092.8
21706.8
20528.2
16512.6
15547.2
15023.8
11118.3
9825.01
9287.02
5081.77
3836.47
3289.21
22721
21371.8
20131.9
23188.8
21470.3
20062.7
17082.7
14949.8
13723.3
11084.9
9062.31
8242.53
5414.9
3827.34
3110.27
26570.1
26100
28866.7
25992.5
29707.9
26016.2
35775.7
27323.7
20646.4
21056.7
20358.5
18941.1
23169.7
21910.5
22700.1
19441.3
22450.8
22359.3
20740.3
22275.7
27776.8
24832.8
27324.9
27713.7
29612.1
30593.2
22745.5
23584.9
20406.8
19798.4
24829.6
25441.3
16257
8607.41
15140.1
9551.22
16490.3
8682.4
15079
9480.8
16293.2
8733.46
15060.1
9892.53
14623.9
10357.9
14787.6
10270.9
20965.2
18023.2
20771.3
17952.7
23101
20943.6
23256.4
20688
20370
15029.3
21331
14871.7
21181.8
17839.7
21424.7
17628.1
23802.3
20487.2
23793.5
20211.6
20122.5
15051.6
20039.9
14952.5
13349.3
8760.65
11882.1
7385.28
12476.7
7831.77
11442.7
6881.24
13652.6
9323.32
12058.4
7616.21
13656.9
9674.56
12020.6
7668.91
2497.37
1268.29
4449.51
2185.34
2677.57
1590.41
4752.66
2697.6
3329.79
2468.68
5299.24
3677.36
13148.8
20295.9
9446.73
9036.19
6198.91
19947.7
13962.9
8177.35
8202.38
5046
20658.9
16346.4
13031.7
10104.6
5993.72
645.125
491.6
1071.68
704.996
974.798
671.119
1699.66
1309.64
1779.5
1433.44
2677.16
2146.5
20385.1
19994.9
13927.2
13596
9087.03
9399.67
7634.6
7241.52
4272.27
3496.94
19051.4
17564.7
14885.1
13324.7
11655
10622.9
8829.65
8234.98
5291.62
5461.4
15178.6
12560.4
15227
12201.3
18098.6
15238.2
18001.3
14944.4
12848.3
10706
12493.2
10792.7
15202.1
11976.3
15099.8
11948.1
17902.2
15181.9
17717.1
15121.9
13061.6
10511.1
13035.4
10651.1
9996.82
8733.34
6337.82
7000.73
9650.56
8576.48
6027.29
6652.85
10420.2
8897.99
6501.74
7439.04
10678.5
8903.31
6774.4
7552.05
2043.56
1814.13
1508.04
9056.23
4816.31
3936.84
1966.72
1964.58
1752.65
9742.63
5662.34
4806.35
2678.94
3041.01
3134.04
10644.8
7040.8
6291.79
19177.5
18227.1
17476.1
13362.5
13199.3
13056.9
9929.08
9999.48
10080.2
8724.46
8575.36
8426.09
12001.3
8652.86
7857.11
16301.1
15319
14611.1
12398.6
11791.7
11421.4
10542.5
9996.42
9648.88
10397.1
9377.62
8749.41
14549
9750.34
8813.49
4606.41
2901.26
2174.74
2023.08
5253.48
3192.04
2310.07
2071.22
4622.35
2890.9
2177.57
2039.4
5371.41
3259.62
2352.43
2088.49
4589.28
2841.52
2162.82
2013.51
5475.27
3294.3
2386.77
2065.05
5925.97
3513.13
2465.58
2177.94
6114.81
3662.08
2559.4
2274.26
4912.67
3038.67
2245.85
2030.2
3838.99
2568.76
2018.07
1951.78
4227.18
2702.44
2067.81
1869.6
3475.34
2394.56
1926.11
1865.45
5368.57
3291.02
2374.8
2137.73
4053.43
2695.75
2077.84
2021.19
5623.55
3460.39
2463.56
2209.53
4142.54
2785.07
2124.66
2055.32
3329.84
2416.33
1946.1
1909.62
1890.8
1824.96
1664.81
1790.59
3326.83
2395.13
1938.32
1902.85
1992.58
1851.99
1674.85
1800.68
3399.27
2380.91
1936.55
1904.25
2326.03
1949.15
1712.4
1847.31
3314.59
2291.47
1881.42
1935.57
2606.51
2011.98
1755.38
1827.41
2984.63
2189.96
1819.33
1833.77
365.766
1336.29
1275
380.691
-1425.79
1056.8
1107.07
413.156
623.266
1419.96
1306.4
403.513
-1089.09
1151.54
1135.29
422.681
1103.1
1567.27
1358.12
402.765
-525.14
1310.12
1178.98
428.682
1681.69
1738.83
1425.06
439.515
59.0524
1482.15
1238.11
448.473
2043.82
1890.39
1506.66
519.505
168.951
1605.67
1292.29
465.624
2184.42
2048.28
1547.88
490.439
-262.088
1719.95
1389
495.015
2129.6
1978.31
1517.2
491.124
-284.231
1666.4
1341.09
477.709
2190.52
2097.76
1578.71
454.392
-348.392
1767.16
1424.35
498.749
2243.99
2151.97
1627.22
466.353
-241.781
1823.53
1466.78
512.484
1994.72
1581.69
1123.4
667.928
221.359
1971.38
1578.42
1124.21
668.78
221.656
2018.84
1593.76
1129.46
670.808
222.208
2000.01
1593.89
1132.35
672.734
222.836
2063.5
1611.06
1137.36
674.459
223.279
2034.91
1612.52
1141.99
677.425
224.246
2067.87
1634.09
1154.79
684.017
226.271
2117.02
1665.41
1173.18
693.476
229.177
2110.13
1632.02
1148.79
680.169
225.017
2254.51
1658.02
1156.27
683.014
225.807
2119.67
1626.62
1143.24
676.982
223.998
2251.04
1648.65
1150.14
679.786
224.797
2130.52
1651.07
1160.29
686.13
226.858
2295.53
1676.49
1166.74
688.395
227.47
2177.88
1681.4
1177.58
694.953
229.569
2345.83
1703.51
1181.72
696.022
229.824
2051.2
1589.58
1123.35
667.243
221.099
2158.82
1598.34
1123.59
666.847
220.943
2073.68
1599.09
1127.85
669.331
221.705
2176.56
1605.48
1127.02
668.45
221.411
2119.14
1615.05
1134.97
672.609
222.657
2215.63
1618.47
1133.15
671.331
222.251
2194.86
1633.56
1142.19
675.826
223.584
2262.4
1632.5
1140.18
674.674
223.215
2267.27
1643.12
1146.29
677.747
224.15
9073.04
13889.2
9554.16
14210.3
10274.5
14644.7
10801.9
14958.6
10444.4
14472.4
9795.8
11014.7
9765.16
11468.8
9875.81
10961.1
10060.3
11114.9
8003.26
1367.35
291.294
65.1334
11.5049
8890.62
2526.2
611.84
138.419
24.4428
8109.51
1359.94
287.498
64.0227
11.2765
8996.97
2521.85
608.209
136.908
23.9644
8229.96
1360.37
284.985
63.1602
11.0982
9106.53
2523.01
604.861
135.595
23.6934
8212.02
1327.73
275.507
60.879
10.6874
9057.32
2484.44
593.156
132.695
23.1568
7847.58
1236.81
256.017
56.7259
9.97844
8634.51
2371.98
567.974
127.39
22.2599
7075.7
1159.66
247.841
55.7979
9.88848
7237.9
2084
511.992
116.686
20.5782
7291.96
1175.77
248.3
55.5503
9.813
7623.33
2190.65
533.488
120.633
21.1637
6999.9
1158.48
248.788
56.151
9.96111
7120.87
2039.16
501.515
114.667
20.279
6985.28
1151.54
247.149
55.8115
9.89317
7143.23
2031.5
498.442
114.248
20.1736
32897.1
46530.7
45491.6
31947.5
18880.1
19851.3
27840.6
29041.3
21738.8
24327.3
34521.6
47000.1
43601.5
57671.4
28498.7
32441.6
22399.6
23901.4
12170
13332.7
4946.16
3307.8
953.981
751.948
840.902
744.465
891.321
4885.82
4881.4
2975.67
4199.08
4064.41
1793.61
2443.08
2243.11
1502
1722.12
1426.4
4392.36
2446.53
1613.24
1434.98
1793.47
1565.13
1245.66
1188.36
1128.88
999.552
1329.01
1205.39
4570.68
2820.4
3222.46
2094.96
1749.66
2416.76
1272.3
1021.34
1391.12
10120.4
10348.4
10713.7
12229.1
20513.3
7376.88
8575.36
9517.81
10838.1
12749.1
2515.25
3608.7
4453.14
5036.67
5341.04
1996.35
2891.92
3593.86
4077.68
4325.78
2229.37
3221.33
3991.48
4516.62
4783.44
1977.98
2867.78
3564.71
4043.07
4286.93
2358.07
3397.78
4202.64
4753.36
5035.32
10334
10770
10786.9
11629.3
18514.7
10293.1
10542
10369.4
10760.7
12394.7
6879.65
8245.75
9013.47
9745.31
10590.6
9136.67
9701.69
9573.56
9604.23
9908.35
8833.57
9453.42
9284.17
9140.15
9191.92
4491.17
5984.75
6963.91
7608.19
7971.39
5838.47
7293.52
8109.54
8666.1
9058.48
5426.7
6877.15
7675.66
8137.76
8386.15
3841.88
5269.52
6255.48
6893.63
7223.68
4328.85
5790.62
6734.7
7320.66
7620.32
3669.53
5071.05
6048.2
6674.18
6988.79
9475.58
10222
10547.6
11662.1
18793.5
5853.56
7379.71
8387.09
9284.8
10168.8
4100.08
5582.83
6614.99
7321.06
7724.99
3688.06
5104.93
6131.89
6845.32
7247.55
4493.66
6017.2
7083.51
7878.33
8416.22
3991.68
5476.15
6559.1
7351.05
7835.65
3236.57
4554.25
5550.2
6256.82
6650.92
3102.73
4389.2
5355.97
6021.09
6374.07
2958.7
4202.1
5128.92
5746
6058.11
2634.06
3772.3
4639
5224.51
5522.34
3441.57
4806.37
5793.3
6450.56
6793.26
3143.79
4437.75
5399.57
6051.29
6392.2
9593.73
10106.2
10518.1
11913.8
19713.5
6498.85
7875.61
8908.29
10110.9
11597.9
7532.94
8939.02
9754.58
10988.2
13507.4
5137.5
6724.33
7885.68
8903.4
9750.38
4405.23
5951.32
7082.41
7966.31
8570.76
5793.04
7346.01
8425.51
9441.93
10458.2
3303.26
4640.34
5641.98
6344.72
6732.57
2686.84
3840.45
4720.34
5321.02
5631.44
3585.71
4986.28
6016.99
6742.65
7153.91
18022.4
11955.7
18577.1
13251.8
24107.3
34342
25176.8
34159.2
19115.4
20251.9
16386.7
19545
21758.1
20727.3
27630.4
22707
13862.8
12908.9
6791.4
5775.57
15118.9
13773.3
7806.16
6352.53
18679.5
20208.9
19180.1
17528.9
19512.2
12856.5
10804.8
12457.3
17651.6
17626.4
36609.1
38296.9
25655.8
26973.8
15554.2
12765.5
17012.8
11796.7
8237.83
7957.67
13523.3
14929.4
5661.75
6161.68
14898.9
16950.7
7069.45
7788.49
14241.6
19825.9
8274.59
12718.6
2897.37
7047.98
2157.46
4869.18
17843.3
20425.5
17778.9
20789.2
19525.5
19830.9
20547.2
20325.5
16182.3
20489.1
18350.9
20199.4
17486.2
20942.7
17604.2
21134.2
21283.6
20535.4
21638
20691.3
14354.1
20627.8
13640.8
20777.1
17952.7
21167.7
21814.3
30292.4
19544.6
25024.7
21869.6
33149.4
16604.4
18181.5
21771.7
28999.8
16150.5
16649.3
21948.9
28703.6
18534
20034
23174.6
34308.5
18672.4
19126.8
24818.5
34779.4
18439.1
18134.5
26738.4
34555.9
18057.1
18993
19218.9
20360.4
30448.3
18270.8
17015.4
20532.5
18639.4
34762.6
19060.4
19814.1
19580.1
21122.9
37647.3
11223
10298.8
10339.7
13314.6
12281.1
11285.9
10720
13696.3
13508.2
11754.4
11224.9
14020.3
17758.3
17149.5
16609.7
16219.4
19083.5
17915.9
15718.9
14194.2
11768.5
14645.7
18761.8
18625.6
19805.8
20000.7
18930.1
17865.7
17107.4
15221.6
11601.5
14181.9
21546.1
24291
22397.2
25915.4
20440.9
21395.6
21073.3
22661.4
20685.6
20927.4
20139.1
19893.8
22701.8
26623.4
22920
26990.9
21007.6
23508.5
21191.8
23829
21017.4
21219.5
21208.7
21454
17635.5
16637.8
11464.5
12593.1
17535.7
16137.2
11419.6
12609.9
17936.1
16715.8
11684.2
12695.6
18083.5
16665.5
12055.5
12756
9451.03
9593.2
4050.88
3737.33
10543.2
10209.9
4539.59
4349.82
10281.9
9653.96
5174.2
5001.48
16969.6
16511.3
16483.2
16590.4
16371.3
15912.6
12268.4
11014
6096.56
5048.69
19018.1
18306.7
20219.4
19487.7
15988.1
14874.3
11448.1
9876.2
5613.57
4244.68
21772.5
20754.7
26614.7
23315.5
24179.1
21608.1
33010.3
24975
19917.3
16455.4
21651.2
17230.1
19810.3
16744.7
21746.9
17456.5
20301.3
18050.8
18428.4
17198
20972.1
22166.5
25970.6
27299.8
28458.9
30256.1
21390.6
23103.8
19370.3
19501.8
23304.8
24927.5
13414.5
9824.81
13821.3
10049.6
13699.2
9733.85
14001.9
9894.45
13653.4
9589.23
13974.6
10087.9
13999.9
10394.5
14585.9
10276.1
17108.9
16687
18843.8
17125.9
19561.3
18797.8
21365.2
19489
18565.5
14720
17699.8
14573.1
20222
17399
21138.6
17494.2
22875.4
19880.5
23523.7
20027.7
19228.9
14857.3
19779.9
14891.9
12942
9175.06
12086.4
7759.3
12424.3
8899.45
12045.9
7679.23
13334.6
9475.85
12121.6
7789.79
13544.4
9710.57
12036.4
7725.5
12978.3
13282.8
9211.43
8461.54
13134.7
13403.5
9063.77
8389.27
13117.2
12876.5
8830.03
8290.91
15219.7
17885.3
16057.7
11945.3
8582.08
16617.2
15622.9
17530.6
12042.7
8284.81
18317.1
16325.1
14552.4
12204.2
7608.5
14066.1
15510.8
8475.9
9300.45
13902.7
15058.2
8390.65
9155.46
12950.5
13658.2
7998.47
8230.74
16502.2
15746.5
15014.1
14591.4
15682.9
16323.5
12274.3
13292.7
7742.83
7646.03
16713.1
15446.2
15172.7
14035.8
13740.2
13357.2
11628.1
11869.9
7107.08
7818.03
14845.2
12903.6
14904.4
12310.1
16667.5
14288.3
17180.8
14451.5
13006.8
11268.6
13100.6
12068.3
14999.9
12022.6
15036.8
11960.5
17490.3
14939.7
17594
15052.8
13076.3
10755.9
13026
10713
10496.7
9536.19
6823.95
7739.89
10792.7
10251.7
6992.26
8141.44
10619
9257.06
6726.72
7836.42
10735.1
9008.72
6851.28
7677.56
18836
18826
26379.1
22062.7
18008.4
18149.7
25268.5
21067.1
15767.4
16522.5
23156.9
19568.7
15367.5
14921.2
14305.2
14198.9
16721.3
17294
15703.6
15777
21233.8
17936.3
14574.2
13963
13569.1
13495.4
14034
14489.8
15265.3
14994.4
20843.1
16538.9
6099.35
3906.04
2793.31
2470.41
6362.52
4055.16
2883.45
2490.78
5973.86
3824.18
2741.66
2446.75
6297.62
4006.71
2846.57
2451.74
5742.82
3661.46
2652.39
2365.74
6193.56
3895.25
2798.49
2369.03
6345.7
3890.94
2747.37
2396.85
6255.29
3793.36
2654.27
2350.4
5515.34
3510.44
2582.67
2299.97
4238.08
2901.82
2252.06
2153.68
5173.76
3372.69
2501.63
2195.09
4128.4
2909.01
2235.05
2102.94
5701.74
3572.56
2587.24
2311.61
4268.55
2883.06
2225.72
2159.95
5726.64
3554.69
2536.83
2270.56
4210.22
2846
2175.36
2103.04
5546.32
3622.14
2621.35
2385.84
4611.08
3201.74
2395.22
2296.57
5379.15
3536.59
2569.92
2346.28
4495.59
3153.98
2369.13
2284.73
5143.46
3397.87
2500.83
2304.71
4411.17
3092.79
2335.86
2283.15
4649.5
3143.67
2362.56
2284.3
4224.38
2989.2
2279.13
2176.6
3954.44
2887.14
2201.19
2096.95
3211.88
2772.83
1950.21
537.506
1023.61
2494.39
1792.9
609.164
3257.33
2772.64
1948.5
556.54
1213.56
2500.39
1789.65
611.211
3336.84
2754.08
1925.71
528.093
1477.02
2490.81
1765.62
596.308
3305.79
2700.81
1924.84
557.027
1522.42
2445.02
1743.71
595.155
3025.33
2588.55
1910.22
636.566
963.661
2328.27
1704.33
590.619
2476.47
2340.94
1797.47
583.825
-138.66
2029.63
1608.63
571.696
2672.83
2446.58
1852.06
599.81
53.7741
2157.84
1651.12
577.34
2333.95
2257.41
1731.3
514.734
-312.477
1934.99
1553.66
546.159
2284.72
2202.74
1677.75
486.901
-238.057
1875.92
1508.71
528.166
2352.03
1801.03
1248.11
730.885
240.494
2297.6
1786.64
1244.01
729.492
240.127
2350.86
1793.97
1243.13
728.183
239.647
2288.13
1775.81
1236.9
725.717
238.957
2366.84
1787.88
1237.26
724.838
238.589
2278.09
1763.4
1228.51
721.254
237.582
2235.4
1738.88
1215.11
714.625
235.591
2178.63
1704.94
1196.05
705.106
232.724
2333.73
1768.54
1226.16
719.239
236.896
2468.1
1779.69
1224.29
717.25
236.21
2404.14
1788.7
1234.09
722.714
237.892
2526.64
1794.74
1231.22
720.514
237.165
2278.33
1744.83
1213.79
713.208
235.098
2433.91
1759.02
1213.2
711.839
234.602
2229.11
1713.9
1196.22
704.415
232.457
2393.38
1732.27
1197.98
704.258
232.341
2456.79
1821.95
1252.97
732.33
240.854
2629.55
1840.75
1256.35
733.246
241.077
2461.73
1817.54
1249.47
730.381
240.235
2631.08
1836.84
1253.58
731.741
240.604
2481.07
1811.52
1243.93
727.288
239.254
2638.64
1829.23
1248.31
728.935
239.722
2535.11
1809.12
1238.97
724.349
238.311
2649.97
1818.15
1241.8
725.556
238.652
2592.77
1804.98
1235.57
722.52
237.741
11202.7
14732
11267.3
14747.2
11407.1
14761.6
11236.4
14598.8
10523.2
13902.1
9794.35
10956.5
9809.93
11371
9863.88
10923.1
10054.3
11101.4
8597.03
1428.68
299.775
66.4987
11.696
9256.55
2613.95
628.465
141.333
24.8589
8565.73
1406.04
293.903
65.0695
11.4248
9221.45
2583.02
620.442
139.115
24.2827
8465.59
1382.46
288.105
63.6996
11.1777
9125.18
2545.17
610.563
136.75
23.8693
8239.39
1327.76
275.537
60.9206
10.697
8906.53
2472.52
592.832
132.831
23.1901
7786.02
1227.15
254.449
56.4652
9.94111
8440.19
2345.87
564.413
126.885
22.1952
7048.01
1154.25
246.615
55.5296
9.84329
7196.82
2071.44
509.002
116.052
20.4741
7254.37
1167.91
246.646
55.2184
9.76008
7549.06
2171.04
529.518
119.891
21.0516
6982.18
1155.23
248.044
55.9822
9.93184
7097.2
2032.05
499.727
114.266
20.2104
6979.11
1150.44
246.897
55.7537
9.883
7135.17
2029.19
497.855
114.113
20.1501
32442.5
46220.9
44420.6
30584.3
23933.4
28457.6
23149
28351.8
26763.9
42348.5
28354.7
43349.4
267.211
284.707
323.717
386.764
478.189
602.995
282.006
299.935
339.744
403.487
494.076
614.903
256.028
250.509
274.641
271.014
316.265
317.034
384.059
393.332
481.231
501.556
607.499
631.058
766.957
976.2
1247.79
1608.08
2023.56
2322.36
769.246
959.255
1186.25
1441.07
1684.91
1843.08
715.506
1049.89
1319.57
1508.57
1605.91
762.127
1117.8
1404.32
1604.94
1708.18
866.096
1269.24
1593.31
1819.84
1936.3
1033.87
1513.05
1896.99
2164.7
2302.17
1276.43
1863.99
2332.45
2658.1
2825.12
1605.75
2336.69
2915.35
3316.32
3522.03
754.964
1107.46
1391.57
1590.57
1693.01
802.679
1176.82
1477.96
1688.67
1797.06
908.625
1330.81
1669.78
1906.54
2028.22
1077.96
1576.29
1974.93
2252.69
2395.31
1317.81
1922.32
2403.43
2737.79
2909.42
1635.95
2377.67
2963.99
3370.64
3579.77
685.615
1006.19
1264.86
1446.22
1539.63
670.847
984.576
1237.79
1415.35
1506.81
735.269
1078.63
1355.39
1549.25
1649.03
725.573
1064.47
1337.7
1529.11
1627.64
846.292
1240.54
1557.67
1779.43
1893.46
848.361
1243.62
1561.61
1783.98
1898.31
1026.86
1503.28
1885.25
2151.67
2288.45
1051.61
1539.44
1930.5
2203.16
2343.09
1284.91
1877.11
2349.5
2677.78
2846.03
1339
1955.67
2447.16
2788.35
2963.04
1618.52
2356.72
2941.24
3345.65
3552.62
1681.17
2447.42
3053.28
3471.52
3685.07
2034
2942.65
3654.84
4147.72
4402.07
2570.61
3683.22
4544.12
5143.9
5460.19
3245.07
4574.36
5586.96
6310.94
6715.83
4092.41
5613.69
6754.69
7627.53
8185.26
4993.17
6593.68
7783.66
8804.5
9601.29
5612.63
7224.05
8423.46
9546.69
10536.4
2038.62
2946.76
3658.43
4152.19
4407.93
2527.22
3623.8
4474.27
5067.91
5380.95
3098.18
4391.81
5383.56
6087.45
6472.65
3719.26
5192.38
6309.23
7127.84
7605.12
4291.15
5891.71
7095.45
8016.69
8598.09
4653.88
6322.6
7574.49
8563.47
9220.98
270.191
293.753
339.313
409.659
509.343
643.438
285.053
309.17
355.539
426.345
524.421
652.688
259.046
253.64
283.869
280.634
332.307
333.888
407.934
418.752
514.103
536.287
651.752
678.998
816.042
1029.73
1298.57
1646.04
2043.63
2328.01
813.068
1005.64
1229.85
1475.74
1706.4
1850.22
723.507
1061.71
1334.55
1525.82
1624.34
786.489
1153.89
1450.12
1657.72
1764.62
908.146
1331.65
1672.7
1911.48
2034.39
1095.73
1605.2
2014.63
2300.93
2448.22
1360.93
1990.62
2495.1
2847.35
3028.57
1716.1
2503.62
3131.72
3569.89
3795.72
763.161
1119.6
1406.98
1608.35
1712.02
827.579
1213.77
1524.95
1742.91
1855.11
951.265
1394.22
1750.6
1999.99
2128.33
1139.8
1668.59
2093
2389.64
2542.27
1400.2
2045.97
2562.5
2923.12
3108.8
1739.06
2533.69
3166.31
3607.85
3835.87
693.723
1018.17
1280.02
1463.66
1558.26
679.259
996.994
1253.5
1433.41
1526.1
760.1
1115.36
1401.96
1602.86
1706.33
751.451
1102.73
1386.17
1584.9
1687.24
889.515
1304.62
1639.09
1873.34
1993.92
893.763
1310.92
1647.09
1882.55
2003.74
1091.34
1599.26
2007.69
2293.36
2440.31
1120.29
1641.72
2061.04
2354.29
2505.11
1374.1
2010.82
2521.32
2877.76
3061.04
1433.4
2097.62
2630.08
3001.73
3192.74
1739.4
2539.86
3178.99
3624.59
3853.86
1812.44
2647.11
3313.53
3777.79
4016.38
2169.23
3150.23
3927.67
4470.95
4753.02
2720.44
3918.53
4859.84
5523.83
5876.34
3391.4
4813.18
5917.75
6718.56
7168.57
4208.51
5816.02
7048.28
8002.06
8611
5061.89
6724.73
7983.1
9068.47
9910.84
5634.41
7268.72
8493.6
9641.83
10650.3
2159.12
3131.22
3900.31
4438.27
4718.29
2656.19
3824.52
4741.49
5387.69
5730.19
3221.49
4588.24
5650.43
6411.83
6830.16
3819.78
5357.58
6539.3
7412.86
7923.05
4355.43
6000.96
7251.21
8213.24
8820.24
4675.75
6360.62
7629.48
8633.66
9300.99
4927.18
3306.61
1017.69
807.034
915.232
805.612
961.516
4546.23
4400.36
2907.1
3658.94
1851.75
2409.53
1579.62
1739.54
1487.94
4240.39
2464.27
1690.23
1515.52
1858.75
1633.41
1309
1266.14
1225.46
1089.88
1417.83
1291.43
4515.09
2826.12
3189.84
2126.99
1803.1
2439.42
1343.96
1098.62
1467.19
10118.1
10403.4
10820.7
12404.5
20837.2
7391.45
8625.5
9607.49
10971.4
12924
2694.37
3891.83
4835.06
5497.83
5846.92
2148.33
3125.79
3901.96
4443.23
4722.94
2436.12
3543.37
4420.64
5030.32
5344.26
2146.81
3127.86
3907.74
4450.43
4729.72
2554.56
3706.51
4616.91
5251.45
5580.25
10106
11409.4
12257.1
13896.4
22109.2
9997.16
11525.3
12580.6
14057.3
16544.5
6978.9
8912.84
10348.1
11690.1
12948.6
8817.77
10779.1
11937
13132.6
14168.3
4758.49
6606.88
7995.86
9002.92
9583.75
6000.81
8003.95
9464.14
10597.1
11339.7
4122.01
5836.2
7145
8065.43
8562.63
4511.41
6334.73
7711.06
8682.99
9215.57
3901.68
5558.8
6831.02
7717.78
8187.37
9381.2
10609.4
11468.3
13107.8
21202.7
6031.16
7898.1
9311.3
10588.7
11738
4372.85
6127.11
7464.79
8439.64
9005.1
3944.09
5570.72
6825
7735.6
8255.6
4735.45
6515.13
7873.33
8930.7
9634.48
4210.93
5879.02
7163.11
8132.68
8726.4
3422.35
4864.3
5986.88
6800.54
7257.83
3331.15
4771.11
5894.25
6690.29
7119.16
3241.26
4672.75
5790.92
6568.1
6972.74
2890.35
4182.65
5198.73
5905.6
6272.32
3720.93
5309.46
6536.96
7400.44
7863.81
3400.27
4874.05
6021.64
6829.61
7261.04
9587.9
10278.6
10858.2
12460.3
20718.1
6554.96
8028.98
9171.91
10489.6
12077.6
7581.66
9247.21
10365.2
11913.9
14764.6
5259.69
6978.15
8290.5
9452.64
10402
4583.15
6288.57
7597.64
8643.35
9351.98
5942.46
7745.64
9127.02
10434.4
11662.2
3516.44
5002.03
6157.23
6990.31
7454.96
2907.79
4197.6
5210.83
5920.24
6292.45
3820.55
5401.25
6624.1
7515.67
8025.98
10137.6
9537.52
8493.82
7047.22
5101.27
1992.17
18363.2
18712.1
21268.4
21924.5
18038.8
19158.7
20366.9
19768.4
15042.4
18431.4
15701.1
18994.8
18025.5
16266.1
25080.8
17684.4
17897.8
20108.9
20531.3
17106.3
18208
19505.3
19098.8
14992.2
22254.9
15568.2
22170
18208.6
19735.4
26914.1
16935.1
17024
18643.7
18829.8
16430.4
17918.8
18360.7
18435.4
17210.3
19743
17967.4
19771.9
19787.6
21725.6
24287.1
16240.7
16348.2
17343.9
17376.9
16059.1
17781.5
17226.4
17567.7
16176.5
17315.4
16908.9
16901.8
18151.2
19613.4
21072.2
15507.3
15647.6
16476.3
16428.1
15813.7
17692
16501.6
17025.2
15360.7
14356.1
16120.6
13812.8
16752
16626.3
17493.3
15196.6
15378.1
15909.1
15829.9
15477.4
17044.3
16044.3
16489.2
14704.1
12398.1
15278.2
12173
15638.3
14694
15902.9
21248.5
20452.3
22249.9
23346.5
19755.6
19775.5
20769.6
19874.5
18825.3
13988.7
18803.2
14077.9
16719.4
15209.2
18282.4
20102.4
19532.1
20610.8
21325.3
19125.5
19304.6
19636.9
18889.3
17529.9
13600.4
17533.1
13706.1
15399.8
13746.2
16999.7
18615.3
18285.9
18661.2
18999.6
18065.5
18257.4
18187.3
17748.9
16743.6
13442.3
16561.1
13189.2
14879.3
12637.1
16820.6
17250.4
17070.4
17205.5
17348.5
16934.6
17069.1
17056.8
16716.7
15949.2
14031.2
15859.3
13715.3
14419.4
12817.5
17326.1
16593.4
16479.6
16431.4
16490.9
16204.8
16332.5
16415.4
16212
15870.6
15270.7
15815.2
15130.2
14635.3
13440.4
18081.3
16125.2
16018.6
16001.6
16034
15788.3
16093.2
15959.4
15888.1
15863.2
16053.3
15867.7
15972.8
14812.7
14046.8
18896.6
11299.9
6411.53
18632.9
12216
20346.2
15027
31959.2
39543.8
42007.6
51323
27172.9
23555.7
17242.6
13674.8
8387.35
5580.46
19334.2
19822.8
16628.9
19563.6
26122.4
23374.3
30084.2
24397.5
7960.89
5756.73
4407.32
3284.63
9716.2
7935.54
5895.92
4770.12
17598.3
18317.4
18026.5
15299.9
14107
10977.3
11020.8
12502.5
17772
17669.3
37195
38434.3
26414.6
27185.2
15000.6
12651.1
16380.5
11689.9
7619.26
7810.41
6082.31
8383.46
3149.64
3764.35
8501.95
11479.3
5063.28
5865.96
9455.67
15638.4
6542.57
10620.1
2499.45
6329.02
2078.59
4729.62
17518.6
21619.1
18014.3
21490.4
21454.1
21694.5
21784
21374.3
15290.7
20688.7
15770.6
20459.1
17714.7
21319.9
17691.6
21257.1
21924.5
21074
21828.3
20858.8
14107.9
20762.4
13608.5
20829
17102.2
19939.3
21602.7
29945.8
18097.6
22924.4
21394.4
32396.3
16224.5
17598.6
21700.8
28855.3
16055.8
16490.4
21940.1
28668.4
4890.16
6373.26
12466.1
21656.1
6213.11
7023.09
16386.4
25025.2
7800.67
7865.85
20902.3
28191
24083.1
26010.5
20238.2
19413.1
27754.9
26241.6
24674
20688.4
17842.8
31566.8
23884
23482.2
20806.4
20490.2
36313.4
1906.94
2297.83
4044.46
9132.25
2782.08
3124.47
5774.6
10461.1
4182.31
3533.29
7913.54
12149.3
26111.4
26032.1
23461.2
23301.7
19940.2
18473
15034.5
13395.1
10484.7
14391.3
23710.3
23090
23792.6
23584
20563.8
19404.2
16894.1
15209.3
11211.2
14628.1
23482.6
26504.4
23387
27111.2
22792.7
23697.9
22214.8
23804.3
21237.2
21631.6
21072.9
21022.4
23189.6
27207.5
23069.1
27165.8
21544.9
24065.5
21351.8
23992.3
21318.7
21583.8
21305
21564.2
17791.1
16924.2
11441.7
12680.8
17655.8
16460.3
11255.2
12672.6
18050.7
16887.8
11698.8
12760.6
18125.6
16721.9
12066.1
12781.4
1590.73
1101.44
776.306
946.778
668.922
626.074
2239.33
1385.25
1067.28
1897.49
1552.83
1358.45
2640.38
2272.86
2311.53
3343.07
2785.72
2527.5
25208
23106.7
21581
23093.1
21707.4
20528.9
16512.9
15548
15024.6
11118.9
9825.84
9287.95
5082.44
3837.24
3289.95
22721.1
21372
20132.3
23189
21470.8
20063.4
17083.1
14950.4
13724.1
11085.5
9062.94
8243.21
5415.39
3827.8
3110.68
26574.5
26101.3
28869.8
25993.7
29721.8
26021.7
35788
27328.5
20472.7
21004.4
20154.4
18877.8
23139.7
21882.8
22666.6
19414.3
22445.7
22355
20740.2
22274
27760.3
24818.1
27325.9
27714
29615.7
30595.2
22743.7
23584
20405.9
19797.5
24822.4
25438
16261.5
8612.72
15138.4
9558.45
16471.8
8677.6
15063.4
9477.17
16281.3
8728.94
15049.7
9887.92
14618.1
10354.4
14784.6
10268.8
20963.5
18022.8
20770.3
17952.4
23103
20944.5
23258.2
20688.6
20364.8
15028.1
21324.3
14870.2
21181.3
17839.4
21424.2
17627.7
23803.6
20487.5
23794.1
20211.7
20119.5
15050.7
20038
14951.7
13346.2
8758.27
11880.5
7384.06
12473.4
7829.41
11440.8
6879.89
13650.4
9321.33
12057
7615.17
13655.3
9673.07
12019.5
7668.05
2484.73
1252.27
4435.23
2166.83
2678.06
1591.5
4752.6
2698.46
3328.95
2468.57
5297.75
3676.78
13149.4
20297.1
9446.38
9034.72
6197.48
19948.6
13963.2
8177.28
8201.32
5045.07
20659.7
16346.4
13030.7
10103.1
5992.56
627.269
470.069
1052.19
696.122
976.196
670.907
1699.89
1308.94
1779.8
1434.12
2677.11
2146.99
20385.4
19994.9
13927.1
13595.6
9086.7
9399.17
7633.98
7241.26
4271.78
3496.9
19051.8
17564.7
14885
13324.4
11654.4
10622.4
8828.8
8234.54
5290.88
5460.94
15178.4
12560.1
15226.8
12201
18099
15238.2
18001.6
14944.4
12847.6
10705.5
12492.4
10792.1
15201.9
11976
15099.5
11947.7
17902.3
15181.8
17717.1
15121.7
13061
10510.6
13034.9
10650.7
9995.95
8732.74
6337.07
7000.07
9649.58
8575.88
6026.47
6652.2
10419.5
8897.43
6501.09
7438.42
10677.8
8902.79
6773.82
7551.48
2007.47
1783.87
1483.78
9006.35
4771.98
3894.25
1963.73
1963.21
1752.66
9738.48
5662.14
4806.6
2679.66
3041.55
3134.48
10644.9
7041.38
6292.47
19177.4
18227
17476.1
13362.1
13198.9
13056.6
9928.47
9998.92
10079.7
8724.28
8575.16
8425.89
12000.9
8652.96
7857.33
16301
15318.9
14611.1
12398.3
11791.5
11421.2
10542.2
9996.15
9648.68
10396.7
9377.42
8749.28
14548.1
9750.11
8813.47
4606.81
2901.25
2174.82
2022.49
5252.15
3190.4
2309.31
2070.18
4621.19
2890.41
2177.22
2039.17
5370.76
3259.36
2352.22
2088.3
4588.01
2841.03
2162.51
2013.3
5474.01
3293.86
2386.51
2064.85
5924.71
3512.66
2465.32
2177.76
6113.85
3661.68
2559.18
2274.1
4911.66
3038.2
2245.58
2030.01
3838.32
2568.38
2017.83
1951.6
4226.2
2701.98
2067.53
1869.41
3474.64
2394.16
1925.86
1865.27
5367.61
3290.57
2374.55
2137.55
4052.82
2695.39
2077.62
2021.02
5622.77
3460.01
2463.33
2209.36
4142.02
2784.75
2124.46
2055.15
3329.07
2416.77
1946.74
1909.22
1888.63
1824.53
1665.31
1789.52
3326.01
2394.69
1937.98
1902.64
1991.91
1851.69
1674.6
1800.58
3398.41
2380.48
1936.26
1904.07
2325.41
1948.81
1712.16
1847.17
3313.82
2291.06
1881.16
1935.37
2605.88
2011.62
1755.14
1827.24
2983.98
2189.58
1819.08
1833.57
365.733
1335.91
1275.75
380.743
-1424.04
1055.41
1106.75
412.992
622.647
1419.85
1306.21
403.503
-1089.83
1151.63
1135.31
422.714
1102.67
1567.03
1357.95
402.718
-525.429
1309.96
1178.88
428.659
1681.25
1738.53
1424.87
439.461
58.8241
1481.9
1237.96
448.426
2043.36
1890.06
1506.45
519.441
168.74
1605.38
1292.11
465.567
2184.02
2047.97
1547.68
490.384
-262.225
1719.67
1388.82
494.956
2129.15
1977.98
1516.99
491.067
-284.389
1666.11
1340.9
477.65
2190.17
2097.48
1578.53
454.345
-348.501
1766.91
1424.18
498.695
2243.69
2151.72
1627.05
466.312
-241.876
1823.31
1466.63
512.436
1993.17
1580.95
1123.08
667.785
221.317
1969.67
1577.51
1123.78
668.579
221.596
2018.78
1593.68
1129.41
670.785
222.202
1999.9
1593.8
1132.3
672.716
222.834
2063.39
1610.98
1137.31
674.437
223.273
2034.78
1612.43
1141.94
677.405
224.243
2067.74
1634
1154.74
683.992
226.265
2116.89
1665.32
1173.13
693.45
229.17
2109.99
1631.93
1148.73
680.145
225.011
2254.33
1657.92
1156.22
682.987
225.799
2119.53
1626.53
1143.19
676.958
223.992
2250.87
1648.55
1150.09
679.761
224.79
2130.37
1650.98
1160.23
686.103
226.851
2295.36
1676.39
1166.69
688.367
227.462
2177.75
1681.31
1177.53
694.927
229.562
2345.66
1703.42
1181.67
695.995
229.816
2049.62
1588.95
1123.1
667.131
221.065
2157.3
1597.82
1123.38
666.76
220.921
2073.65
1599.01
1127.81
669.311
221.701
2176.56
1605.39
1126.97
668.435
221.412
2119.04
1614.97
1134.92
672.588
222.653
2215.53
1618.39
1133.1
671.312
222.249
2194.72
1633.47
1142.14
675.803
223.578
2262.26
1632.42
1140.12
674.652
223.21
2267.1
1643.03
1146.24
677.722
224.144
9024.25
13834.5
9556.44
14212
10276
14645.5
10802.9
14959.2
10445.1
14472.9
9796.38
11015.3
9765.79
11469.4
9876.38
10961.7
10060.8
11115.4
7992.28
1358.16
288.934
64.5923
11.4094
8875.17
2520.44
610.201
138.029
24.3716
8107.08
1360.51
287.607
64.0399
11.2786
8995.36
2521.24
607.999
136.848
23.9529
8229.4
1360.43
284.993
63.1584
11.0974
9106.11
2522.8
604.783
135.57
23.6881
8212.07
1327.74
275.506
60.8768
10.6867
9057.36
2484.4
593.129
132.685
23.1543