/*--------------------------------*- C++ -*----------------------------------*\
| =========                 |                                                 |
| \\      /  F ield         | OpenFOAM: The Open Source CFD Toolbox           |
|  \\    /   O peration     | Version:  2306                                  |
|   \\  /    A nd           | Website:  www.openfoam.com                      |
|    \\/     M anipulation  |                                                 |
\*---------------------------------------------------------------------------*/
FoamFile
{
    version     2.0;
    format      ascii;
    arch        "LSB;label=32;scalar=64";
    class       volScalarField;
    location    "2.6";
    object      gradTz;
}
// * * * * * * * * * * * * * * * * * * * * * * * * * * * * * * * * * * * * * //

dimensions      [0 -1 0 1 0 0 0];

internalField   nonuniform List<scalar> 
5712
(
7075.18
23257.6
5609.55
23854.8
4218.72
24699.9
6676.43
38158.8
8209.72
52485.9
8139.08
38179.9
7841.33
31658
8148.59
28268.6
4929.42
3030.67
13176.6
7793.95
4839.28
2605.18
14462.9
7176.15
5368.68
3864.01
17228.8
12054.5
4058.1
2893.57
16950.7
12251
9512.2
4017.19
8194.16
3639.16
3749.64
8845.02
33084.4
8979.27
11830.4
4019.02
42703.4
11614.2
11115.8
3867.01
23570.6
7322.04
12085.3
4225.37
20442
6507.74
5574.74
2763.87
8397.42
3256.08
6027.72
3263.05
8198.58
3128.09
7702.21
4379.2
7063.56
3050.53
10530.6
3770.44
3628.16
1262.24
11893.8
8196.01
7384.99
5375.98
13451
11054.9
7357.65
6368.89
6940.78
4645.9
9710.51
6429.32
4884.25
3578.69
2501.59
2046.36
4758.03
4111.23
2486.73
2393.98
4652.9
3025.92
2400.26
1528.28
6161.82
3337.18
4580.5
5569.8
8373.05
5950.91
6587.3
9487.44
4099.42
1933.36
2711.83
3201.55
2047.2
845.101
1175.82
1187.89
7234.22
12999.8
4927.42
14540.2
8519.65
12749.2
6078.41
15266.3
9730.96
11580.3
7869.08
14970
11818.7
14307.6
8707.83
8334.35
9166.09
14272.6
12969
12546.7
12763.1
18521.3
11593.4
8756.24
7455.59
8328.17
13186.3
14995.8
13332.4
17420.8
16661.6
13730
12676.3
17234.9
16338.6
11896.4
11552.4
16205.6
15776.3
10385.7
8099.33
9457.92
8157.11
10217.7
9007.98
10886.6
10335.9
14994
15218.8
9719.76
8342.53
9108.58
8595.35
9277.61
9659.47
10387.2
11492.3
13577.6
15509.3
7977.58
6252.51
5502.52
7037.32
10934.8
13387.7
7604.63
12073.5
4606.94
6100.7
6831.14
5612.07
1305.39
4680.18
693.881
1687.12
3892.87
8140.12
1450.71
2830.79
577.712
3930.55
340.446
1378.33
4499.54
4577.51
5110.85
3137.87
7098.54
5643.61
8349.89
5700.87
1007.18
2503.75
2527.78
1412.38
1423.09
1857.39
2026.09
1525.8
10557.1
6385.25
1996.19
11975
6837.87
2232.43
10120.3
6317.79
2120.15
11806.5
6850.3
2230.56
9314.82
5795.92
1897.78
11546.1
6896.77
2299.08
5221.32
2775.12
733.586
6558.66
4297.7
1495.84
7734.99
5332.43
1836.86
8888.39
5724.48
1894.87
11455.1
7102.37
2484.3
6242.79
3455.76
1078.33
6103.7
4373.67
1643.47
7169.92
5292.69
1934.49
8978.38
6282.66
2236.96
11575.1
7172.77
2534.7
295.58
1996.12
2810.64
4074.22
2133.33
2463.07
5370.06
5110.56
599.577
1040.36
640.331
1084.05
486.063
1417.35
869.178
1860.61
3216.74
1576.76
4075.88
2356.27
2180.33
3798.14
3383.97
969.051
5976.88
1489.2
-1836.73
774.129
1817.21
1374.23
1271.7
1201.54
9918.53
4661.98
2716.37
1723.81
10076.3
4852.65
3406.16
2173.27
9956.71
5231.78
4954.13
3549.76
3538.14
2591.24
1792.63
1731.19
12551.1
11179.1
5921.92
6159.46
13347.2
12543.4
6589.95
6658.77
5341.81
5515.45
10913.3
9164.07
3553.68
3719.36
2018.6
2277.45
4077.08
4055.65
2268.66
2421.21
3150.91
3394.02
1801.84
2185.17
4834.49
3483.58
4858.1
3570.48
7510.26
4614.05
7214.72
4940.8
2938.11
2522.26
3082.23
2314.83
1677.62
1597.42
1966.27
1359.57
11877.9
8554.66
6173.54
6460.73
11830.3
8725.77
6214.93
6430.24
12247.7
8990.15
6304.64
6235.93
13773.4
14677.8
12724
8685.7
5149.24
13913
13096.8
12394.8
10471.5
7101.67
13045.9
11957.2
9718.99
7661.95
5019.16
7524.23
6889.19
7184.83
8427.49
7684.25
6709.1
7222.88
8281.37
7892.4
6545.8
7242.76
8105.59
10506.9
7404.24
10004.3
7011.81
8083.95
6631.57
7771.7
6804.9
6691.36
7981.37
8720.37
7566.02
7869.27
6922.3
6893.92
6344.88
6298.93
6396.17
5304.7
7608.54
7032.71
4770.21
4678.06
2783.23
9032.21
6962.7
6294.24
5041.88
3913.05
2383.11
5681.46
4263.51
4742.61
2242.45
1751.73
1010.87
4955.68
3574.16
1747.03
1444.79
4171.8
1894.51
1654.06
881.074
3389.49
3211.05
3126.78
4670.76
4723.17
4593.67
4010.5
6021.19
3379.27
2269.16
2231.71
3139.48
1050.69
528.42
288.774
624.905
4819.35
2006.98
590.041
5636.37
1448.52
384.026
4833.23
2151.54
658.836
5598.15
1499.99
416.623
4434.51
2094.73
539.529
5458.73
1515.47
353.292
4535.55
2261.12
483.915
4256.68
2032.22
466.569
4342.38
2072.52
555.435
4464.07
2086.9
434.89
5405.71
1476.42
219.186
5800.35
2879.33
749.915
5399.63
2673.08
722.327
5077.09
2504.08
725.143
4991.36
2118.3
514.303
5840.38
1367.92
331.49
1854.35
671.752
130.586
-220.547
770.413
295.356
79.5336
-44.9101
1967.54
738.479
188.616
-136.981
978.351
411.853
196.631
92.0144
2118.74
824.625
286.81
-9.78091
1680.07
797.753
321.232
78.1042
1283.67
740.893
286.28
1.13943
1216.32
817.2
496.341
304.522
1763.26
793.2
252.086
-187.562
1519.26
672.987
298.736
-193.172
2086.45
816.15
262.803
-142.813
1895.26
744.162
296.454
-320.986
1418.83
743.782
309.59
-55.8103
1170.17
599.4
326.616
5.7527
1055.4
662.346
406.441
257.207
810.107
511.538
349.962
212.46
2375.47
811.105
125.606
-437.113
2375.87
750.105
174.716
-600.171
2374.64
824.285
148.784
-415.258
2302.62
730.532
183.843
-581.072
2332.09
829.614
228.706
-297.42
2148.79
692.615
229.396
-476.922
2044.28
768.379
320.128
-45.0936
2356.69
777.296
327.098
-558.365
1836.78
690.494
324.243
-131.615
1901.76
530.88
158.38
-409.065
761.58
193.355
44.69
-86.163
1958.63
566.545
179.331
-389.428
791.153
208.968
58.0369
-70.7743
1985.3
606.767
225.109
-341.831
801.376
226.658
76.1424
-51.5048
1787.56
573.204
260.482
-270.081
775.338
234.293
104.801
-17.3627
1634.77
571.613
288.41
-157.333
690.361
247.312
144.192
29.7187
1146.24
466.81
231.646
-44.1985
648.981
326.338
203.516
110.758
1322.57
471.279
228.09
-111.704
653.786
281.913
173.956
70.5631
924.976
455.044
259.286
44.6848
585.197
346.735
227.687
149.958
655.386
416.452
291.578
186.334
491.797
348.376
251.644
194.592
-19.4954
9.14941
9.35685
6.73347
5.2519
-2.7857
6.10129
5.27245
3.72313
2.9051
11.1059
25.7333
19.0063
12.8865
9.89973
30.3873
24.9715
16.4301
10.8438
8.27336
44.95
46.0291
31.2691
20.8966
16.016
124.432
84.6044
53.276
34.854
26.5323
150.223
100.123
62.9598
41.2674
31.5003
218.064
132.733
81.1456
52.734
40.1974
79.7478
67.3689
44.2169
29.2805
22.307
84.9015
63.4618
40.7579
26.9258
20.5225
54.7326
53.8655
36.0318
24.072
18.4259
99.5552
65.551
40.748
26.7424
20.3259
104.03
80.5717
52.2443
34.5322
26.3735
113.575
76.0134
47.7938
31.3905
23.9335
173.41
106.96
65.5359
42.6159
32.4682
144.836
88.2979
54.0143
35.1174
26.711
-36.3095
4.82951
6.95385
5.17238
4.06599
-19.8743
1.56191
2.73037
2.07125
1.6498
-16.2528
15.2257
12.9229
8.97662
6.9663
-12.7108
5.24668
4.81197
3.3775
2.64901
9.02582
27.3006
19.7003
13.3455
10.3318
14.2591
17.4731
11.5476
7.5831
5.84856
64.9795
52.9811
34.1725
22.706
17.4696
43.1655
33.4232
21.0997
13.9149
10.7108
119.642
69.3591
41.8257
27.176
20.6619
1543.85
3533.21
1549.45
3491.26
1681.55
3456.55
2005.72
3597.65
2101.15
3722.11
832.778
1313.53
1380.54
2224.4
436.678
636.523
151.251
208.396
8090.88
1928.86
441.118
98.3015
24.3561
2200.93
591.939
157.218
35.6787
7.73177
8013.36
1894.44
432.754
95.615
23.8631
2238.97
660.141
162.444
37.6935
9.33818
7683.71
1803.2
410.236
90.5007
22.6084
2173.19
638.719
156.773
36.1982
8.99994
7077.16
1645.46
373.086
82.2111
20.5384
2115.31
608.799
147.478
33.747
8.34411
5965.64
1379.45
312.845
69.0138
17.2595
2006.19
561.642
134.534
30.586
7.53835
2854.82
690.168
159.146
35.3495
8.85064
979.799
278.696
66.1901
14.7795
3.63228
4233.05
1008.97
230.895
51.0448
12.7627
1442.37
405.009
97.0488
22.0487
5.47007
1680.61
409.591
94.8789
21.1746
5.31064
546.713
161.878
38.1797
8.51664
2.11222
580.224
140.54
32.618
7.30148
1.83149
218.203
58.2942
12.6505
3.57027
0.681542
150.192
513.984
4489.59
-813.697
742.744
796.009
2320.93
2970.72
1865.03
3502.9
2934.39
4527.88
3533.01
4385.65
1837.28
2475.87
1964.48
2329.93
1022.15
1062.76
2291.23
1683.55
509.536
-466.605
-765.131
-918.38
-281.554
12797.9
3037.96
4181.23
2690.55
-181.767
-50.203
2945.59
-1421.92
-797.921
-1093.13
-559.734
7028.61
3698.46
1259.11
1044.52
3651.35
2013.91
641.952
1382.72
-1496.22
-868.971
697.339
551.863
8642.49
4296.15
5293.93
2843.86
4081.85
4425.46
1536.74
-899.052
921.069
1633.39
1351.12
1178.75
1078.44
845.138
1338.51
1084.4
855.615
609.278
265.222
449.01
375.214
287.34
184.483
64.6422
-416.654
-347.547
-259.257
-159.25
-53.6207
-683.765
-571.181
-427.052
-262.933
-88.6199
-821.907
-687.86
-515.359
-317.89
-107.259
-244.984
-195.972
-137.695
-79.0049
-25.2032
9346.8
8199.26
7105.06
6637.4
6284.85
2739.62
2446.74
2320.23
1966.72
1054.21
3213.77
2582.7
2203.56
1753.57
931.199
2086.48
1706.45
1506.69
1179.09
500.629
-19.207
30.6963
147.238
163.711
82.5306
50.4604
136.176
182.073
163.438
70.3699
2513.12
2116.28
1684.14
1185.99
492.25
-865.645
-424.98
-168.801
-31.6569
6.3133
-636.052
-453.672
-275.546
-132.12
-34.5277
-773.922
-483.011
-251.667
-100.195
-21.4083
-506.549
-420.893
-307.539
-183.093
-59.6159
5250.04
4802.97
4208.84
3956.8
3772.39
2854.88
2268.15
1903.19
1465.86
726.653
1173.11
1070.3
916.853
664.719
265.193
924.798
797.587
647.663
448.977
172.196
3053.02
2473.77
1897.39
1271.61
493.994
1790.46
1527.47
1208.35
807.908
294.402
561.682
473.552
372.428
248.896
91.5286
1223.03
1027.74
792.109
512.183
181.026
-1298.56
-1048.6
-757.91
-453.81
-150.224
-764.42
-623.717
-452.136
-269.361
-88.5062
627.911
546.668
444.056
304.587
113.668
499.49
437.284
356.499
244.12
90.2024
5609.75
4132.12
3603.76
3376.39
3018.25
3291.65
2573.98
2005.42
1445.68
659.273
3913.89
3229.96
2640.09
2079.59
1029.94
2279.5
1868.64
1466.85
1039.52
458.047
3484.15
2861.6
2198
1452.84
541.205
3359.73
2497.54
2046.22
1555.45
668.068
1346.5
1124.4
866.362
563.705
201.36
-797.842
-658.701
-484.329
-292.698
-97.2122
816.728
703.625
569.833
392.593
147.593
-27010
-44284
-22388.2
-35853.5
-24029.6
-50437.8
-28767.1
-64037.6
-17096
-11678.3
-19263.2
-11976
-15786.9
-10134
-19570.7
-10275.9
-22306.3
-16775.9
-32529.6
-23399.3
-19156.2
-15238.5
-27197.1
-20403.9
-15372
-15684.5
-12611
-12101.5
-14824.4
-13986.3
-37624.1
-10376.1
-14297.3
-5330.07
-46058.3
-12757
-12786.2
-4737.11
-27954.6
-8802.36
-14638
-5600.84
-24830
-7721.82
-11487.1
-4616.64
-14657.9
-5306.95
-10898.7
-4787.41
-12743.5
-4607.72
-11302
-5474.01
-10180.6
-4035.69
-13073.8
-4611.34
-4588.92
-1610.01
-9763.45
-6462.34
-8426.61
-5122.59
-8632.39
-6932.14
-7404.18
-5276.39
-8559.77
-4851.65
-10015.2
-6216.29
-5771.15
-3433.82
-3105.81
-1902.51
-4980.89
-3430.07
-2583.18
-1834.79
-5861.15
-3174.54
-3241.23
-1620.15
-7537.57
-3823.03
-4857.95
-5664.76
-9556.04
-6414.7
-6833.37
-9553.9
-5115.59
-2292.22
-2910.06
-3274.6
-2767.82
-1113.38
-1316.53
-1244.42
-11267.1
-13684.9
-6342.48
-15464.6
-11716.7
-13061.2
-7284.11
-15815.5
-11846.8
-11902.7
-8682.72
-15058.8
-8126.73
-6569
-8879.4
-9828.33
-9799.59
-9008.86
-10368.5
-11998.5
-12870.8
-18273.9
-6174.29
-6340.59
-6884.32
-8327.92
-13042.9
-12980.6
-9051.73
-16458.3
-12651.8
-12033.9
-8911.68
-16216.2
-12599.9
-10655.7
-8322.62
-15135.7
-12471.5
-7398.41
-5893.39
-7586.02
-6055.18
-8447.94
-6806.11
-9207.41
-7786.85
-13796.7
-12536.2
-6955.36
-5989.68
-6944.47
-5983.32
-7609.21
-7059.53
-9128.16
-9001.13
-12753.9
-13082.6
-6363.18
-5081.2
-4683.05
-6166.18
-8012.03
-11127.9
-6059.5
-10275.9
-4279.83
-5677.43
-6113.75
-4998.8
-793.684
-4061.81
-227.687
-1195.78
-2902.99
-7066.55
-631.583
-1966.17
-375.18
-3621.06
-131.214
-1120.87
-4396.07
-4386.02
-5063.02
-3037.25
-6806.95
-5287.55
-8191.59
-5375.15
-948.696
-2368.63
-2489.53
-1345.06
-1348.79
-1736.07
-1979.79
-1457.07
-5487.69
-1887.84
-7420.47
-2532.85
-5609.98
-1969.7
-7596.52
-2728.38
-5565.66
-1939.42
-8049.31
-3108.53
-3458.91
-966.18
-4284.2
-1648.82
-4813.37
-1872.93
-5778.81
-2192.34
-8494.7
-3388.9
-4416.93
-1331.52
-3908.55
-1950.32
-4697.37
-2256.55
-6347.96
-2790.22
-8794.58
-3328.68
-5984.97
-5624.79
-4469.89
-4414.93
-9998.81
-7652.86
-8097.72
-6721.64
-4093.67
-3600.92
-1668.23
-1216.22
-3852.59
-3768.23
-1527.45
-1609.83
-2869.95
-4556.1
-3438.54
-4923.39
-3741.83
-2403.73
-3105.39
-441.14
-6582.11
-1687.33
2606.61
495.717
-864.422
-219.534
294.797
744.18
-2498.19
-1818.17
-923.279
-572.894
-2642.93
-1923.98
-1361.37
-652.708
-2942.03
-2302.27
-1785.14
-886.765
-1114.23
-41.1129
709.606
1136.23
-5002.17
-5404.77
-3837.75
-3615.91
-6694.01
-6721.97
-5538.99
-4663.89
-2536.13
-2869.28
-3837.75
-4445.18
-2297.93
-2009.67
-938.556
-869.137
-3539.23
-2783.12
-1774.68
-1395.17
-1291.59
-1475.55
-188.665
-548.515
-1711.73
-1262.9
-2504.11
-1889.3
-2722.35
-2309.93
-3885.09
-3104.71
-595.095
-375.204
-1206.63
-743.84
421.261
549.149
-289.275
159.201
-3682.01
-4690.92
-3209.86
-4815.77
-3637.37
-4664.08
-3285.33
-4808.74
-3813.64
-4297.03
-3463.35
-4568.24
-2792.42
-4623.34
-2434.93
-2218.31
-2504.32
-6974.54
-4989.9
-4671.21
-4963.06
-5276.24
-5590.09
-4742.6
-4084.64
-3894.38
-3190.52
-5628.21
-5702.65
-7488.02
-11576.1
-5311.44
-5118.35
-7182.2
-11024.7
-4851.76
-4682.35
-6627.11
-10151.4
-6824.82
-5246.46
-6214.28
-4742.17
-5514.14
-4415.46
-5736.98
-5324.41
-6132.28
-9388.61
-5532.78
-5231.58
-4745.96
-4784.82
-4348.12
-4627.99
-4588.55
-5513.4
-4359.04
-8275.3
-3884.3
-2784.36
-2649.18
-956.926
-5528.1
-4856.81
-4279.81
-3145.2
-2088.6
-775.878
-3216.17
-2603.79
-3192.28
-965.586
-428.922
127.087
-3560.91
-2323.01
-615.84
-350.102
-2658.72
-731.276
-280.072
185.401
-1974.9
-2096.5
-2223.23
-4199.08
-3073.64
-3533.95
-3188.51
-5866.6
-2060.87
-1354.39
-1209.83
-2540.66
241.631
382.128
803.417
97.0507
-4088.52
-1189.51
-7795.4
-799.923
-3813.9
-1277.95
-7574.15
-829.836
-2908.13
-770.476
-6887.89
-657.923
-2882.14
-639.843
-2688.72
-621.343
-2972.07
-903.988
-3173.86
-595.712
-6480.26
-840.403
-4033.73
-782.229
-3767.49
-604.714
-3891.49
-769.634
-4394.92
-659.913
-6804.2
-822.083
-798.901
-159.104
190.23
468.197
-267.636
-38.6283
74.7142
148.426
-786.475
-122.224
209.193
441.888
-180.404
39.5688
81.2439
90.8179
-803.929
-79.2424
212.686
392.402
-2.78866
260.543
405.953
451.23
576.349
507.816
580.223
609.047
1046.98
755.483
588.395
437.7
-346.683
136.933
417.752
704.109
-284.499
191.491
335.699
708.094
-869.6
-63.1275
276.236
586.827
-668.45
69.3022
302.232
867.541
142.536
334.517
447.449
599.634
62.759
297.38
338.458
512.004
610.435
517.264
437.997
352.493
427.405
405.182
339.707
324.473
-1275.1
-277.566
226.171
762.43
-1597.02
-331.415
92.5518
953.535
-1222.97
-238.791
245.719
776.649
-1535.4
-305.713
94.1362
942.844
-1137.13
-179.888
201.912
674.075
-1393.08
-256.859
62.0361
858.496
-756.537
-29.3482
187.242
491.61
-1441.82
-216.587
68.5773
1067.41
-706.202
30.0805
214.164
674.338
-1490.35
-255.142
19.9298
672.654
-650.095
-97.7681
29.0056
171.158
-1392
-217.852
39.4687
675.201
-618.574
-85.4762
32.9328
168.972
-1192.84
-145.267
49.4823
656.03
-526.581
-55.0353
47.1862
176.475
-978.169
-85.0691
34.3053
588.914
-430.947
-24.0457
48.6135
169.624
-715.138
12.5564
84.5434
505.157
-223
46.6974
65.5416
165.663
-317.788
144.863
235.953
468.542
104.485
219.499
198.369
233.044
-587.775
41.8012
153.165
481.947
-22.0294
140.812
131.372
199.628
8.69364
254.795
284.033
423.416
230.201
281.344
244.835
246.57
332.26
346.068
291.238
304.553
356.413
325.236
256.858
226.604
105.431
30.8295
12.8404
7.2637
5.33715
44.684
14.7715
6.56175
3.78073
2.77914
123.591
44.9402
22.0552
13.3597
10.0258
71.352
32.5604
17.7587
11.1449
8.44624
152.282
62.9861
33.2574
20.5798
15.5209
180.881
94.4808
54.5391
34.7644
26.4642
200.59
109.077
63.667
40.6219
30.8601
224.544
133.896
80.9021
52.2491
39.7936
182.021
83.1023
45.9775
28.9116
21.989
154.48
73.3708
41.1739
25.9316
19.7218
164.321
68.2954
36.634
22.7153
17.1688
136.005
68.3811
39.3683
24.9168
18.9911
195.71
95.3986
53.8438
34.0206
25.8352
158.189
82.953
48.0236
30.5521
23.2733
187.005
108.882
65.4173
42.1787
32.1119
155.769
90.021
53.9245
34.7224
26.4459
114.336
27.2844
10.3354
5.6503
4.10766
53.0391
10.9753
3.91357
2.07596
1.48042
123.416
35.5083
15.831
9.29017
6.8803
56.3406
13.9737
5.93997
3.43476
2.51135
127.504
43.0437
21.2858
12.8962
9.60005
63.9294
23.4912
12.4835
7.83058
5.86271
142.129
60.3994
33.069
20.5515
15.4272
84.3355
36.2774
20.2606
12.6929
9.52199
120.448
67.4243
40.021
25.593
19.4909
-1749.93
-3291.1
-1793.63
-3292.45
-1943.31
-3309.51
-2125.16
-3389.87
-2051.66
-3402.54
-800.21
-1253.66
-1335.57
-2088.76
-398.141
-591.891
-106.887
-164.738
-8383.48
-1981.02
-450.214
-99.8402
-24.6312
-2254.54
-607.126
-160.696
-36.2983
-7.82629
-8241.2
-1935.31
-440.001
-96.8478
-24.0871
-2298.4
-677.351
-165.907
-38.3213
-9.45401
-7798.11
-1825.23
-414.394
-91.2389
-22.7448
-2224.11
-652.497
-159.521
-36.6954
-9.09249
-7082.07
-1649.1
-374.14
-82.4329
-20.5802
-2136.83
-615.962
-149.033
-34.0404
-8.4001
-5916.33
-1372.76
-311.936
-68.8779
-17.2312
-1991.46
-561.795
-134.861
-30.67
-7.55614
-2831.55
-684.864
-158.043
-35.1306
-8.80153
-959.623
-274.569
-65.4298
-14.6412
-3.60368
-4193.52
-1001.29
-229.49
-50.7886
-12.7083
-1417.43
-401.573
-96.5825
-21.9795
-5.45756
-1666.64
-406.3
-94.1455
-21.0208
-5.27452
-529.905
-157.823
-37.313
-8.34275
-2.07306
-570.179
-138.236
-32.0906
-7.18664
-1.80365
-202.404
-54.3556
-11.7508
-3.37892
-0.636952
203.176
-1027.73
-5287.48
894.04
-6331.77
-2777.4
-6127.16
-2809.46
-11132.8
-5930.23
-12485.1
-6613.69
-134.356
-533.667
-838.226
-987.825
-887.387
-363.167
-220.295
-827.419
-1256.12
-1387.08
-1118.4
-383.297
-114.15
-122.355
-428.096
-431.231
-612.464
-605.743
-590.678
-558.535
-528.584
-504.691
-413.672
-368.923
846.318
2197.2
3560.61
2523.79
2321.97
1119.57
800.862
2299.3
3717.67
4303.99
3590.79
1637.32
-121.16
-102.417
-77.6075
-48.3599
-16.4205
-481.946
-408.136
-309.872
-193.402
-65.7273
-756.945
-640.971
-486.626
-303.718
-103.221
-891.756
-754.85
-572.875
-357.45
-121.465
-800.93
-677.727
-514.062
-320.561
-108.885
-329.462
-279.817
-212.309
-132.002
-44.6835
-198.553
-167.737
-127.037
-79.1339
-26.8659
-746.812
-632.036
-479.596
-299.224
-101.676
-1133.46
-959.014
-727.59
-453.931
-154.25
-1250.81
-1057.59
-801.955
-500.191
-169.959
-1007.77
-851.417
-645.212
-402.299
-136.687
-346.399
-293.348
-222.465
-138.579
-47.0216
-103.009
-87.1492
-66.0957
-41.2137
-13.9983
-110.48
-93.5371
-70.9927
-44.2936
-15.0496
-386.739
-327.646
-248.859
-155.364
-52.8059
-389.633
-330.153
-250.804
-156.598
-53.2293
-553.252
-468.671
-355.939
-222.199
-75.5199
-547.149
-463.462
-351.953
-219.699
-74.6686
-533.539
-451.918
-343.141
-214.155
-72.7717
-504.247
-426.857
-323.947
-202.111
-68.6708
-477.3
-404.005
-306.414
-190.985
-64.8387
-455.06
-384.602
-291.376
-181.526
-61.6245
-373.684
-315.998
-238.948
-148.297
-50.1721
-332.299
-280.336
-211.816
-131.58
-44.5788
752.734
629.536
475.829
298.289
102.133
1946.24
1623.38
1226.97
771.499
265.509
3118.7
2585.76
1958.78
1245.76
436.634
2195.71
1816.74
1380.62
883.006
310.783
2051.94
1702.74
1287.67
808.578
262.893
1020.14
864.193
662.486
416.813
132.097
713.189
596.634
450.339
281.547
96.1536
2042.71
1706.25
1287.93
806.631
276.229
3283.28
2732.09
2062.73
1297.71
447.396
3776.61
3130.22
2364.5
1494.92
519.177
3150.7
2611.61
1974.79
1249.89
432.471
1452.06
1216.13
927.44
589.634
203.697
296.124
692.952
992.241
1133.85
1021.9
500.316
444.295
1044.63
1456.94
1557.42
1244.45
466.65
241.776
230.144
550.949
535.302
724.237
699.782
683.345
630.639
611.204
517.996
551.572
412.791
-689.758
-1959.29
-3148.39
-1971.47
-1645.67
-378.695
-731.51
-2186.65
-3468.36
-3855.79
-2946.44
-869.541
267.892
227.357
173.009
108.179
36.8012
626.531
531.339
404.021
252.476
85.8647
896.895
760.397
578.029
361.142
122.808
1024.71
868.589
660.153
412.4
140.231
923.82
783.28
595.397
371.943
126.466
455.036
387.953
295.849
184.879
62.7954
401.843
340.947
259.387
162.166
55.1644
944.107
800.296
608.293
380.036
129.234
1316.12
1115.08
847.19
529.151
179.923
1406.09
1190.63
904.206
564.655
191.991
1123
950.485
721.628
450.616
153.228
422.669
358.976
273.128
170.63
57.9973
218.74
185.654
141.28
88.3395
30.0516
208.21
176.706
134.46
84.0692
28.5976
498.216
422.601
321.391
200.859
68.3104
484.073
410.604
312.264
195.151
66.3688
654.79
555.29
422.209
263.821
89.7143
632.629
536.436
407.828
254.814
86.6487
617.89
524.052
398.473
248.981
84.6627
569.985
483.183
367.243
229.407
77.9998
553.001
469.263
356.887
222.965
75.7982
468.08
396.682
301.388
188.203
63.9749
500.287
425.393
323.765
202.142
68.6461
373.303
316.518
240.457
150.056
50.9729
-609.647
-506.561
-381.06
-238.474
-81.6968
-1729.18
-1437.21
-1083.9
-681.507
-234.871
-2739.68
-2257.51
-1704.16
-1084.61
-381.729
-1672.95
-1349.95
-1006.61
-638.611
-224.947
-1405.18
-1121.15
-817.424
-496.976
-150.932
-309.773
-223.444
-142.549
-70.9261
-7.83154
-650.166
-542.871
-409.236
-255.775
-87.3798
-1940.75
-1619.68
-1222.12
-765.61
-262.332
-3055.35
-2536.1
-1911.68
-1202.45
-414.903
-3361.75
-2768.37
-2081.26
-1313.61
-456.603
-2549.01
-2082.02
-1556.05
-978.956
-337.993
-732.345
-579.943
-422.092
-261.201
-88.8345
-1394.13
-880.292
-207.335
723.381
1025.79
1305.02
625.662
-10665.9
-1621.5
-3063.91
-1469.85
294.102
-3942.54
882.957
2518.95
1211.07
-5773.19
-2602.91
-387.38
-499.95
-3304.8
-1209.97
-211.279
-978.082
2213.8
1408.9
-471.323
-115.119
-7611.94
-3533.66
-4169.43
-2003.27
-3474.3
-3228.66
-1023.3
1431.64
-323.262
-669.572
-444.036
-397.77
-518.938
-614.866
-539.256
-343.785
-237.39
-183.887
-104.642
-170.469
-133.456
-99.1942
-64.8112
-23.5852
654.388
554.994
421.658
263.135
89.4101
925.374
782.28
592.539
368.918
125.162
1177.34
995.52
754.423
469.998
159.527
567.325
480.778
363.177
224.39
75.4864
-7674.37
-6911.16
-6291.28
-6458.9
-6842.88
-1036.24
-707.223
-862.465
-1033.44
-744.815
-2146.35
-1587.58
-1400.8
-1255.54
-791.414
-940.166
-622.77
-587.631
-541.284
-248.328
270.239
219.606
144.52
66.4613
12.1485
-3292.21
-2704.5
-2093.1
-1435.36
-583.156
798.815
668.479
493.035
294.472
94.8087
2192.83
1794.3
1329.12
820.325
278.243
1087.72
912.659
684.8
422.199
141.845
-4044.11
-3789.72
-3474.35
-3607.02
-3876.24
-1779.18
-1275.5
-1102.04
-957.232
-567.407
-298.211
-252.845
-243.689
-222.124
-112.653
-400.424
-322.803
-265.548
-201.402
-87.3396
-2757.82
-2236.46
-1728.98
-1177.86
-468.761
-1017.14
-828.077
-645.216
-441.277
-166.968
-158.094
-116.757
-90.0364
-67.1338
-28.88
-844.975
-695.057
-530.387
-344.793
-123.596
1977.8
1655
1242.94
769.503
260.111
1269.96
1070.44
806.203
498.095
167.75
-393.519
-320.397
-252.719
-176.336
-68.824
-82.0172
-61.2985
-54.4643
-47.8481
-22.2724
-4636.9
-3251.04
-2894.71
-2940.18
-2941.34
-2562.62
-1914.47
-1470.53
-1092.95
-535.069
-2772.09
-2192.03
-1786.36
-1517.82
-813.779
-1475.53
-1141
-878.677
-654.752
-325.986
-2916.25
-2360.63
-1804.15
-1202.31
-456.286
-2224.39
-1456.35
-1215.02
-1027.45
-491.556
-869.615
-707.109
-539.657
-355.532
-130.127
1292.39
1091.71
824.468
510.87
172.481
-246.191
-190.799
-158.881
-126.278
-55.6461
0.555419
44.2129
105.026
140.185
107.411
3.01989
-19076.4
-16836.4
-16090.1
-18337.6
-13974.8
-11059.6
-12621.3
-9583.68
-16489.7
-14421.8
-15191.3
-14260.3
-13326.9
-11344.4
-13996.5
-15680.7
-14011.1
-12918.4
-14570.9
-11773.9
-9972.89
-10558.6
-8472.01
-14771.5
-13089.3
-13606.3
-12365.3
-11777.4
-11008.1
-11333.3
-12297.7
-11267.6
-10225
-11186.7
-9775.44
-8391.23
-8822.63
-7587.18
-12350.4
-11177
-11494.8
-10446.7
-9995.05
-9248.36
-9479.75
-8573.19
-8064.29
-7217.91
-7653.25
-7233.7
-6486.54
-6559.57
-6012.99
-8871.73
-8944.72
-8369.17
-8421.69
-7458.46
-6738.83
-7469.42
-5476.93
-5233.94
-4649.35
-4850.78
-4844.02
-4385.63
-4334.23
-4011.04
-5869.69
-5852.47
-5608.21
-5467.07
-5102.8
-4608.63
-4972.64
-1970.79
-1900.47
-1683.28
-1742.87
-1789.91
-1674.01
-1589.6
-1483.96
-2228.63
-2217.35
-2083.46
-1978.37
-1918.39
-1760.93
-1879.98
-7337.79
-7242.4
-10881.5
-11724.7
-6925.68
-6162.44
-9557.04
-7782.39
-5845.01
-4468.3
-5805.93
-4425.8
-5845
-5582.11
-4486.3
-7330.27
-6964.42
-9687.27
-10561.5
-6477.8
-5879.61
-8434.16
-7282.03
-5849.5
-4013.6
-5749.95
-4217.46
-5270.08
-5061.81
-4572.41
-6725.71
-6422.35
-8227.71
-8817.44
-6049.68
-5645.83
-7374.02
-6544.8
-4903.11
-4425.3
-4891.29
-4636.16
-4586.62
-4577.91
-4769.39
-5474.43
-5281.71
-6186.34
-6491.71
-5027.26
-4715.32
-5738.24
-5252.03
-4764.01
-4053.91
-4685.75
-4292.58
-4396.62
-4348.7
-4335.05
-3806.6
-3694.56
-4103.64
-4256.14
-3439.31
-3192.29
-3872.96
-3565.12
-3382.39
-3154.61
-3304.62
-3289.42
-3098.33
-3028.58
-3106.51
-1422.77
-1382.01
-1502.63
-1551.17
-1279.91
-1178.53
-1426.19
-1315.98
-1111.8
-1162.01
-1186.11
-1252.35
-1151.88
-1113.03
-1137.83
7043.07
22776.8
5578.57
23852.6
4202.69
24701.7
6672.29
38166.9
8204.9
52497.3
8122.86
38176.5
7807.88
31641
8125.45
27654.8
4922.37
3029.01
13177.4
7794.06
4837.79
2605
14466.1
7177.3
5335.07
3837.93
16883.2
11828.2
4037.82
2885.11
16964.8
12268
9518.1
4010.63
8194.59
3636.85
3744.98
8852.58
33093.4
8980.52
11832.4
4019.07
42713.4
11616.4
11118
3867.68
23582.9
7324.27
12088.7
4225.92
20458
6510.64
5519.81
2737.11
8248.82
3200.37
6028.4
3263.52
8212.41
3133.31
7701.29
4379.35
7068.03
3052.67
10539.3
3773.72
3630.25
1263.05
11892.8
8195.33
7384.82
5375.79
13449.4
11053.6
7357.78
6368.73
6940.89
4645.86
9709.77
6429.03
4884.62
3578.71
2501.25
2046.18
4758.67
4111.37
2486.8
2393.99
4653.67
3025.99
2400.04
1528.09
6162.62
3337.7
4580.66
5570.08
8372.91
5951.2
6587.37
9487.82
4100.72
1933.92
2711.99
3201.73
2047.34
845.195
1175.72
1187.9
7189.99
12994.2
4896.35
14530.7
8521.53
12745
6081.45
15263.3
9731.1
11579.3
7869.8
14969.3
11817.8
14305.5
8707.39
8334.75
9166.8
14270.7
12967.9
12545.8
12762.7
18521.3
11591.7
8755.37
7455.19
8328.17
13186.7
15017.7
13368.8
17425.5
16643.4
13723.2
12671.1
17227.1
16333.7
11893.8
11549
16204.2
15774.4
10384.4
8098.32
9456.86
8156.06
10216.6
9006.67
10885
10334.1
14993.3
15217.7
9718.65
8341.53
9107.77
8594.38
9276.93
9658.5
10386.6
11491.4
13577.6
15508.7
7977.1
6252.27
5502.32
7037.27
10933.9
13386.9
7604.23
12073.1
4606.89
6100.78
6830.9
5611.97
1305.27
4680.17
693.797
1687.08
3892.75
8139.95
1450.72
2830.77
577.62
3930.6
340.338
1378.3
4499.63
4577.62
5111.05
3137.95
7098.54
5643.63
8350.14
5700.92
1007.17
2503.8
2527.88
1412.41
1423.08
1857.41
2026.13
1525.81
10583.1
6398.32
2004.01
11980.9
6846.81
2235.49
10116.8
6316.71
2120.03
11803.4
6848.65
2230.32
9312.36
5794.68
1897.47
11544.3
6895.48
2298.72
5220.55
2774.63
733.42
6557.73
4297.07
1495.63
7733.74
5331.6
1836.58
8886.73
5723.44
1894.55
11453.9
7101.38
2483.96
6241.99
3455.23
1078.13
6102.78
4372.97
1643.2
7168.89
5291.88
1934.17
8977.33
6281.78
2236.62
11574.2
7171.91
2534.35
300.936
1998.19
2824.77
4078.63
2135.69
2464.15
5377.94
5113.11
582.771
1027.68
621.251
1067.03
490.352
1417.02
873.553
1859.83
3228.8
1581.95
4080.47
2357.57
2184.04
3806.04
3388.63
972.925
5979.7
1491.2
-1824.89
782.401
1822.88
1379.36
1281.31
1209.22
9930.42
4657.73
2705.17
1715.58
10067.6
4852.61
3404.09
2173.17
9951.88
5230.85
4955.55
3549.47
3542.13
2591.78
1797.52
1732.98
12547.5
11177.1
5922.91
6159.54
13344.7
12541.6
6590.51
6658.77
5342.86
5515.47
10909.8
9162.37
3555.83
3719.95
2020.35
2278.04
4078.39
4056.03
2269.51
2421.52
3153.35
3394.61
1804.11
2185.86
4834.92
3483.62
4858.03
3570.42
7507.94
4613.39
7213.51
4940.24
2939.9
2522.83
3082.68
2315.09
1679.73
1598.45
1966.91
1360.03
11907.6
8560.3
6175.52
6461.32
11822.2
8725.11
6213.7
6430.17
12240.1
8986.76
6302.97
6234.74
13768.5
14674.3
12719
8682.23
5148.21
13910.2
13093
12390.6
10468
7100.29
13043.6
11954.4
9716.57
7660.19
5018.42
7524.29
6894.03
7180.74
8421.39
7682.17
6708.74
7220.38
8280.29
7890.24
6544.29
7241.92
8104.96
10505.1
7403.08
10001.9
7010.41
8081.56
6630.09
7769.58
6803.44
6690.32
7980.46
8718.82
7564.82
7867.36
6920.92
6892.08
6343.53
6297.47
6395
5303.91
7607.63
7031.15
4769.22
4677.56
2782.78
9030.82
6961.77
6293.75
5041.41
3912.63
2382.74
5680.14
4262.64
4742.61
2242.32
1751.99
1010.98
4955.63
3574.01
1747.17
1444.84
4171.8
1894.43
1654.37
881.206
3389.18
3210.68
3126.57
4670.38
4722.23
4592.94
4010.01
6020.55
3379.27
2269.05
2231.75
3139.34
1051.01
528.563
289.066
625.026
4824.99
2012.44
592.734
5642.33
1457.3
386.247
4831.78
2151.7
658.854
5595.82
1498.43
416.66
4433.45
2094.39
539.505
5457.92
1514.83
353.157
4534.8
2260.68
483.776
4255.86
2031.79
466.439
4341.5
2072.09
555.316
4463.13
2086.46
434.759
5405.02
1476.06
219.073
5799.52
2878.85
749.749
5398.74
2672.61
722.175
5076.2
2503.63
725.002
4990.55
2117.89
514.168
5839.72
1367.7
331.42
1847
667.493
128.01
-221.53
762.814
291.472
77.668
-45.7106
1967.87
738.559
188.58
-137.185
978.495
411.899
196.564
91.8651
2118.67
824.604
286.775
-9.90211
1679.96
797.737
321.215
78.0034
1283.78
740.959
286.336
1.14709
1216.91
817.473
496.484
304.581
1763.29
793.238
252.115
-187.573
1519.31
673.04
298.777
-193.131
2086.29
816.122
262.803
-142.851
1895.15
744.151
296.465
-320.963
1419.05
743.905
309.668
-55.7748
1170.35
599.513
326.689
5.80379
1055.85
662.572
406.568
257.27
810.389
511.705
350.067
212.527
2374.56
810.058
123.994
-438.317
2378.44
750.714
174.071
-601.994
2374.18
824.061
148.732
-415.369
2302.12
730.344
183.903
-580.963
2331.71
829.485
228.692
-297.426
2148.33
692.462
229.405
-476.832
2043.98
768.269
320.087
-45.1476
2356.29
777.181
327.088
-558.302
1836.59
690.442
324.22
-131.665
1907.38
532.951
158.7
-411.681
765.23
194.532
44.8334
-87.1784
1955.98
565.714
179.173
-389.001
790.026
208.65
57.9496
-70.5858
1984.71
606.543
225.107
-341.7
801.063
226.547
76.1297
-51.4213
1787.2
573.073
260.461
-270.017
775.156
234.223
104.785
-17.3353
1634.54
571.538
288.389
-157.303
690.252
247.269
144.173
29.7208
1146.25
466.846
231.676
-44.1631
649.004
326.361
203.529
110.768
1322.47
471.265
228.094
-111.677
653.738
281.897
173.946
70.561
925.088
455.131
259.346
44.7367
585.297
346.806
227.732
149.99
655.585
416.586
291.666
186.401
491.961
348.491
251.718
194.646
-20.7303
8.34334
8.85018
6.38842
4.97618
-3.60947
5.54306
4.90212
3.45821
2.68717
11.0901
25.7269