/*--------------------------------*- C++ -*----------------------------------*\
| =========                 |                                                 |
| \\      /  F ield         | OpenFOAM: The Open Source CFD Toolbox           |
|  \\    /   O peration     | Version:  2306                                  |
|   \\  /    A nd           | Website:  www.openfoam.com                      |
|    \\/     M anipulation  |                                                 |
\*---------------------------------------------------------------------------*/
FoamFile
{
    version     2.0;
    format      ascii;
    arch        "LSB;label=32;scalar=64";
    class       volVectorField;
    location    "0.4";
    object      flux;
}
// * * * * * * * * * * * * * * * * * * * * * * * * * * * * * * * * * * * * * //

dimensions      [0 1 -1 1 0 0 0];

internalField   nonuniform List<vector> 
2658
(
(9.25382e-07 9.02307e-07 -6.9616e-06)
(1.39268e-06 5.42674e-07 -6.42381e-06)
(4.1447e-07 1.49791e-07 -3.12798e-06)
(2.62025e-08 4.03058e-09 -2.71635e-06)
(-1.13032e-06 -1.11568e-06 -3.86891e-06)
(-9.46247e-07 1.3427e-06 -3.92491e-06)
(7.42779e-07 -8.74683e-07 -2.7178e-06)
(7.43949e-07 7.38078e-07 -2.65672e-06)
(2.68841e-09 2.72763e-08 -2.71458e-06)
(1.33952e-06 -9.62804e-07 -3.91799e-06)
(-1.08708e-06 2.42553e-07 -4.89003e-06)
(-9.47264e-07 -3.24913e-06 -4.56552e-06)
(7.77711e-07 2.22869e-06 -6.738e-06)
(8.4697e-07 2.25508e-06 -6.52227e-06)
(6.25214e-07 1.87795e-06 -6.44924e-06)
(-1.66787e-09 1.90306e-06 -6.60355e-06)
(-2.22439e-08 2.04455e-06 -6.66402e-06)
(-4.33591e-08 1.881e-06 -6.59262e-06)
(-6.67612e-07 1.91941e-06 -6.42324e-06)
(-9.11408e-07 2.22934e-06 -6.42872e-06)
(-9.36334e-07 2.17053e-06 -6.61768e-06)
(-2.1682e-06 1.95041e-06 -5.96987e-06)
(-2.46694e-06 6.7433e-07 -6.7028e-06)
(1.72844e-06 -3.40539e-07 -4.60286e-06)
(-6.82689e-07 6.13562e-07 -7.44625e-06)
(-1.03255e-06 2.03725e-06 -6.63233e-06)
(-2.20692e-06 -4.09632e-07 -6.09838e-06)
(-2.70277e-07 1.40958e-07 -6.78137e-06)
(-1.61276e-06 1.65985e-06 -7.14176e-06)
(-1.81448e-06 -8.85622e-11 -6.19719e-06)
(-1.61274e-06 -1.65988e-06 -7.14168e-06)
(-2.20696e-06 4.09652e-07 -6.09836e-06)
(-1.03258e-06 -2.03736e-06 -6.63224e-06)
(-2.46704e-06 -6.74353e-07 -6.70267e-06)
(-6.8262e-07 -6.13549e-07 -7.44619e-06)
(1.72842e-06 3.40575e-07 -4.60273e-06)
(-6.30252e-07 2.73498e-08 -5.28582e-06)
(4.10073e-07 1.76943e-07 -8.57455e-06)
(-2.16793e-06 -1.95099e-06 -5.96978e-06)
(-9.36598e-07 -2.17064e-06 -6.61781e-06)
(-9.11419e-07 -2.22949e-06 -6.42882e-06)
(-6.67568e-07 -1.91948e-06 -6.42323e-06)
(-4.3497e-08 -1.88086e-06 -6.59253e-06)
(7.31303e-08 8.53756e-07 -8.59944e-06)
(-8.29361e-07 1.5984e-08 -4.68767e-06)
(7.79795e-07 6.67005e-08 -4.64331e-06)
(-1.08705e-06 -2.42563e-07 -4.89003e-06)
(-5.36526e-08 8.91625e-07 -8.60501e-06)
(-1.8809e-09 -1.9034e-06 -6.60363e-06)
(6.25199e-07 -1.87797e-06 -6.44926e-06)
(8.4695e-07 -2.25494e-06 -6.52217e-06)
(7.77641e-07 -2.22874e-06 -6.73809e-06)
(2.06494e-06 -2.04141e-06 -6.05811e-06)
(-3.93685e-07 3.86532e-07 -8.96117e-06)
(2.24742e-06 -7.69505e-07 -6.74468e-06)
(1.88558e-06 -6.3305e-07 -6.45172e-06)
(-9.00894e-07 5.39196e-08 -8.60136e-06)
(-5.21433e-08 -7.84402e-07 -4.65909e-06)
(-2.97827e-06 -1.79796e-11 -4.68946e-06)
(1.88567e-06 2.47217e-08 -6.5975e-06)
(-9.0083e-07 -5.38832e-08 -8.60146e-06)
(1.88561e-06 6.33056e-07 -6.45178e-06)
(2.24738e-06 7.69576e-07 -6.74468e-06)
(-3.93607e-07 -3.86572e-07 -8.96114e-06)
(2.37941e-07 2.36668e-07 -5.06119e-06)
(-3.24672e-06 -9.24204e-07 -4.57425e-06)
(2.28079e-07 -1.08848e-06 -4.8799e-06)
(-1.13303e-07 -7.02742e-08 -3.89734e-06)
(-7.13442e-07 -1.48801e-06 -3.86242e-06)
(-7.13519e-07 1.48802e-06 -3.86233e-06)
(2.45979e-08 1.05344e-11 -2.72923e-06)
(5.23207e-07 9.48278e-07 -2.64291e-06)
(-8.69923e-08 -2.23911e-08 -1.73788e-06)
(-4.24408e-07 5.74611e-07 -1.72461e-06)
(3.44916e-08 5.20185e-09 -1.11869e-06)
(-4.54318e-07 -4.45962e-07 -1.7163e-06)
(5.69894e-07 -4.34791e-07 -1.72012e-06)
(4.47046e-09 3.67511e-08 -1.11695e-06)
(-3.50136e-07 2.91185e-07 -1.07354e-06)
(3.81305e-07 1.84762e-07 -1.04365e-06)
(-6.61408e-07 -2.94372e-07 -1.71899e-06)
(-2.78229e-08 -8.2242e-08 -1.73695e-06)
(9.52671e-07 4.97336e-07 -2.62977e-06)
(-8.76223e-07 7.64468e-07 -2.72591e-06)
(-1.99223e-09 1.4297e-09 -2.5898e-06)
(-3.57362e-09 -1.37892e-09 -1.07005e-06)
(8.83568e-10 1.96634e-09 -3.72057e-07)
(6.70277e-10 1.12121e-09 -1.08949e-07)
(2.09702e-10 3.70919e-10 -2.72079e-08)
(4.63127e-11 9.72759e-11 -5.87394e-09)
(8.65145e-12 2.34206e-11 -1.1091e-09)
(-4.81649e-12 -5.64342e-12 -2.23082e-10)
(1.35777e-13 2.97665e-13 -8.87694e-11)
(-2.26422e-11 1.19172e-11 -8.3156e-11)
(1.02623e-11 -3.89441e-12 -6.31989e-11)
(-5.31006e-12 -3.02766e-11 -1.06956e-10)
(-1.31984e-11 -1.09143e-12 -6.18452e-11)
(-2.03303e-13 -1.14105e-11 -8.26229e-11)
(1.2243e-11 -1.59555e-12 -6.12186e-11)
(-1.08688e-11 -3.39286e-12 -5.98498e-11)
(4.901e-12 -1.14191e-11 -7.93839e-11)
(1.39688e-11 -2.52333e-12 -5.9868e-11)
(2.17801e-11 -2.40702e-11 -9.38888e-11)
(6.97818e-12 -4.89238e-12 -6.93881e-11)
(8.14534e-12 -5.90663e-12 -6.00116e-11)
(-2.27371e-11 1.09342e-11 -9.07128e-11)
(-1.50014e-12 -4.75219e-12 -7.39256e-11)
(-1.54722e-13 -6.17343e-12 -2.02221e-10)
(-2.54737e-12 1.61905e-12 -7.09223e-11)
(5.69701e-12 -1.11832e-11 -7.51162e-11)
(1.08893e-11 2.94732e-12 -6.62899e-11)
(3.95055e-12 -4.34834e-12 -5.57866e-11)
(7.70438e-12 -8.83344e-15 -6.93613e-11)
(3.9502e-12 4.3486e-12 -5.57864e-11)
(1.0888e-11 -2.94412e-12 -6.62917e-11)
(5.69123e-12 1.11819e-11 -7.51244e-11)
(8.16629e-12 5.91387e-12 -6.00509e-11)
(-2.27439e-11 -1.0946e-11 -9.07233e-11)
(2.17934e-11 2.40717e-11 -9.38952e-11)
(7.003e-12 4.90261e-12 -6.94159e-11)
(1.39665e-11 2.5146e-12 -5.98437e-11)
(4.88687e-12 1.14158e-11 -7.93928e-11)
(-1.08684e-11 3.39603e-12 -5.98525e-11)
(1.22428e-11 1.59371e-12 -6.12087e-11)
(-2.7519e-11 -9.14693e-12 -8.68128e-11)
(2.49934e-11 -8.41119e-12 -8.71202e-11)
(-2.26564e-11 -1.19315e-11 -8.31531e-11)
(-5.32102e-12 3.02793e-11 -1.06965e-10)
(-1.31965e-11 1.09936e-12 -6.18455e-11)
(1.02566e-11 3.89148e-12 -6.32127e-11)
(-5.8516e-12 1.18311e-11 -8.4742e-11)
(-1.53472e-11 1.90712e-12 -6.3857e-11)
(-7.84999e-12 5.25264e-12 -7.59875e-11)
(-8.04899e-12 7.40536e-12 -6.44847e-11)
(-6.91289e-12 1.16123e-11 -8.26701e-11)
(-2.86113e-12 -5.93551e-12 -7.66821e-11)
(-7.38298e-12 2.88201e-12 -8.02482e-11)
(-4.35937e-11 4.8853e-12 -1.31877e-10)
(1.58206e-11 -1.93852e-11 -9.46051e-11)
(1.58223e-11 1.94075e-11 -9.46078e-11)
(-7.38255e-12 -2.87057e-12 -8.02276e-11)
(-2.86995e-12 5.94115e-12 -7.66775e-11)
(1.41911e-12 -3.03804e-12 -7.23728e-11)
(-6.96529e-12 -2.78947e-12 -6.86558e-11)
(-7.33638e-12 -2.21391e-14 -8.41675e-11)
(-6.95538e-12 2.79046e-12 -6.86396e-11)
(-1.35939e-12 2.0003e-14 -9.11714e-11)
(-5.18748e-12 2.27951e-14 -1.20779e-10)
(-1.50086e-11 -6.51528e-12 -6.64881e-11)
(-1.55485e-11 6.41883e-12 -6.67918e-11)
(-1.18614e-11 2.95541e-14 -5.6487e-11)
(-1.48712e-11 6.61466e-13 -9.11918e-11)
(-1.53129e-11 4.7953e-12 -1.20377e-10)
(-1.55248e-11 -5.72105e-12 -5.42935e-11)
(-1.73014e-11 1.98329e-11 -8.85027e-11)
(-2.68059e-11 4.33406e-12 -9.01213e-11)
(-2.11445e-11 1.96108e-11 -8.41609e-11)
(-1.03782e-11 2.43722e-11 -8.5365e-11)
(-1.31943e-11 2.63067e-11 -7.33835e-11)
(-1.09858e-11 1.9616e-11 -8.58631e-11)
(9.93076e-13 1.99642e-11 -8.69265e-11)
(-5.08735e-13 2.4537e-11 -7.25506e-11)
(-3.09662e-12 2.05284e-11 -8.6608e-11)
(7.71236e-12 1.87224e-11 -8.16529e-11)
(1.14225e-11 2.57274e-11 -6.88542e-11)
(8.12533e-12 2.4236e-11 -7.98102e-11)
(1.7821e-11 1.95247e-11 -7.64498e-11)
(2.88909e-11 6.51141e-12 -8.79974e-11)
(-3.30862e-12 9.63645e-12 -1.8381e-10)
(6.66414e-11 3.05821e-11 -2.80618e-10)
(-2.31957e-10 -1.43063e-10 -7.89917e-10)
(6.23999e-10 4.43307e-10 -2.0034e-09)
(-1.29956e-09 -8.79299e-10 -4.67519e-09)
(3.31044e-09 2.29024e-09 -1.06093e-08)
(-6.50614e-09 -4.64242e-09 -2.31429e-08)
(1.52281e-08 1.03324e-08 -4.87865e-08)
(-2.82418e-08 -2.08428e-08 -9.87124e-08)
(6.02843e-08 4.02807e-08 -1.92568e-07)
(-1.04782e-07 -7.92645e-08 -3.59164e-07)
(2.03322e-07 1.33711e-07 -6.44501e-07)
(-3.27376e-07 -2.53494e-07 -1.09998e-06)
(5.78985e-07 3.72947e-07 -1.8001e-06)
(-8.50456e-07 -6.7963e-07 -2.79879e-06)
(1.40202e-06 8.53512e-07 -4.07671e-06)
(-1.38068e-06 8.58375e-07 -3.92017e-06)
(1.46998e-06 7.25217e-07 -3.8367e-06)
(-1.51601e-06 6.90427e-07 -3.8804e-06)
(1.33947e-06 9.62841e-07 -3.91792e-06)
(-1.13037e-06 1.11565e-06 -3.86885e-06)
(2.61965e-08 -4.03687e-09 -2.7163e-06)
(-9.46187e-07 -1.34272e-06 -3.92494e-06)
(2.28006e-07 1.08849e-06 -4.87981e-06)
(-3.24667e-06 9.24155e-07 -4.57428e-06)
(2.37912e-07 -2.36647e-07 -5.06118e-06)
(-9.47316e-07 3.24911e-06 -4.56552e-06)
(4.45908e-07 -4.46247e-07 -7.23488e-06)
(-1.99973e-09 -1.4436e-09 -2.58978e-06)
(-3.56859e-09 1.36878e-09 -1.07004e-06)
(8.825e-10 -1.96683e-09 -3.72053e-07)
(6.7019e-10 -1.12184e-09 -1.08947e-07)
(2.09996e-10 -3.71424e-10 -2.7207e-08)
(4.63961e-11 -9.71985e-11 -5.87367e-09)
(8.65848e-12 -2.34213e-11 -1.10905e-09)
(-4.82448e-12 5.64095e-12 -2.2308e-10)
(1.29206e-13 -3.06422e-13 -8.87779e-11)
(5.1972e-13 -5.28708e-13 -7.6938e-11)
(-9.26753e-12 -6.90074e-12 -8.95584e-11)
(-4.8383e-12 9.08354e-12 -2.14793e-10)
(6.89924e-12 -7.27164e-12 -9.00099e-11)
(6.90611e-12 7.27373e-12 -9.00131e-11)
(-9.26527e-12 6.91737e-12 -8.95624e-11)
(5.24912e-13 5.23849e-13 -7.69391e-11)
(-4.82137e-12 -9.10135e-12 -2.14795e-10)
(-6.42477e-13 -1.58084e-12 -7.89687e-11)
(2.49962e-11 8.40918e-12 -8.71386e-11)
(-2.75264e-11 9.1462e-12 -8.68272e-11)
(2.39251e-12 -3.02483e-11 -1.04147e-10)
(1.95476e-11 1.01287e-11 -7.93729e-11)
(-5.88944e-13 1.02701e-12 -8.43382e-11)
(-2.81733e-12 1.03112e-12 -7.33632e-11)
(-2.78252e-12 -2.84649e-12 -7.89179e-11)
(-9.1164e-13 3.5509e-13 -9.0393e-11)
(-2.51218e-12 2.35339e-12 -2.30405e-10)
(1.39241e-12 4.29815e-12 -2.18779e-10)
(1.97956e-12 -4.20125e-15 -2.47797e-10)
(1.39434e-12 -4.30105e-12 -2.18758e-10)
(-5.97033e-13 -1.03699e-12 -8.43367e-11)
(-1.49742e-12 4.7534e-12 -7.39225e-11)
(-1.14686e-11 -1.01396e-11 -8.53169e-11)
(-1.41486e-13 6.17912e-12 -2.02197e-10)
(1.86577e-12 -9.13537e-12 -8.44072e-11)
(1.8675e-12 9.15372e-12 -8.44121e-11)
(-1.14735e-11 1.0147e-11 -8.53209e-11)
(-3.08115e-13 1.25507e-15 -9.49098e-11)
(6.12316e-12 -5.9872e-12 -8.54558e-11)
(-1.09133e-11 -8.418e-12 -8.9497e-11)
(-1.09206e-11 8.42945e-12 -8.95004e-11)
(-4.35251e-13 -8.92607e-12 -2.08279e-10)
(6.12842e-12 6.00043e-12 -8.5459e-11)
(-3.45207e-13 -1.62289e-12 -7.63803e-11)
(-9.15775e-13 7.08762e-15 -5.37212e-11)
(-1.14802e-12 -2.86574e-12 -5.36839e-11)
(-1.23806e-12 -1.46799e-12 -4.99648e-11)
(5.97849e-12 6.1054e-12 -6.16725e-11)
(-7.65848e-13 -7.1965e-13 -5.28626e-11)
(5.38947e-13 3.52816e-15 -5.54235e-11)
(-6.8273e-12 1.82755e-15 -1.15513e-10)
(-6.56086e-12 -4.50596e-15 -2.21698e-10)
(-3.76519e-12 -1.68085e-11 -1.48326e-10)
(1.94275e-11 1.30021e-11 -1.48576e-10)
(1.17665e-11 2.29515e-11 -7.99773e-11)
(1.96795e-11 -5.59543e-12 -5.86022e-11)
(1.43006e-11 1.63373e-11 -7.7183e-11)
(-6.01876e-11 -3.11752e-11 -1.4068e-10)
(9.68545e-11 9.97892e-11 -4.12403e-10)
(-2.7977e-10 -1.82402e-10 -9.01363e-10)
(-2.7976e-10 1.82369e-10 -9.01373e-10)
(1.46286e-11 1.55169e-11 -8.56416e-10)
(-5.33374e-10 4.05368e-10 -2.09633e-09)
(2.41151e-11 -4.18384e-11 -1.96231e-09)
(1.28795e-09 -1.13841e-09 -4.88831e-09)
(-2.77063e-09 2.23821e-09 -1.10341e-08)
(5.39129e-11 -2.63748e-10 -1.00422e-08)
(6.33226e-09 -5.4971e-09 -2.39741e-08)
(-1.28781e-08 1.06902e-08 -5.05117e-08)
(2.53786e-11 -1.14783e-09 -4.46569e-08)
(2.69986e-08 -2.31812e-08 -1.02041e-07)
(-5.16735e-08 4.36768e-08 -1.99034e-07)
(-5.38554e-10 -4.16406e-09 -1.70208e-07)
(9.87066e-08 -8.39025e-08 -3.71251e-07)
(-1.75034e-07 1.50838e-07 -6.64964e-07)
(-3.54488e-09 -1.43819e-08 -5.48102e-07)
(3.06922e-07 -2.5611e-07 -1.13733e-06)
(-4.89813e-07 4.35658e-07 -1.85607e-06)
(-1.12463e-08 -5.15804e-08 -1.46794e-06)
(8.23165e-07 -6.48643e-07 -2.87597e-06)
(-1.08759e-06 1.0379e-06 -4.344e-06)
(-6.95965e-08 -2.06628e-07 -3.38633e-06)
(2.15677e-06 -1.47307e-06 -5.80607e-06)
(3.72143e-07 -7.63579e-07 -4.32796e-06)
(2.876e-06 -1.79481e-06 -5.91328e-06)
(2.87598e-06 1.79484e-06 -5.91324e-06)
(-2.70216e-07 -1.40896e-07 -6.78124e-06)
(7.7864e-07 -5.84842e-07 -7.16499e-06)
(-2.27251e-07 9.70719e-07 -5.98134e-06)
(1.00287e-06 8.64126e-07 -5.47195e-06)
(7.47478e-08 -3.37577e-11 -8.22914e-06)
(-5.84983e-07 -5.87021e-07 -5.15959e-06)
(-5.84965e-07 5.86992e-07 -5.15962e-06)
(6.85145e-07 6.30927e-07 -5.20879e-06)
(-1.95508e-08 -2.39435e-11 -8.21698e-06)
(-7.68834e-07 -7.48298e-07 -5.26806e-06)
(-7.68813e-07 7.48276e-07 -5.26809e-06)
(2.17578e-07 3.17916e-07 -5.08902e-06)
(-2.75016e-07 -2.31185e-11 -8.23196e-06)
(-1.20076e-06 -2.05339e-06 -6.67191e-06)
(-1.20078e-06 2.05335e-06 -6.67188e-06)
(5.15905e-07 -1.40486e-06 -8.62726e-06)
(1.85794e-06 2.15434e-11 -1.25538e-05)
(5.15917e-07 1.40483e-06 -8.62728e-06)
(7.69567e-07 -1.10301e-06 -8.7828e-06)
(2.04157e-06 6.99091e-07 -1.242e-05)
(9.05017e-07 1.61228e-06 -8.79323e-06)
(1.18291e-06 1.17196e-06 -1.02576e-05)
(1.30303e-06 1.29289e-06 -8.1148e-06)
(-2.10833e-06 -2.09809e-06 -7.89044e-06)
(-1.21552e-06 1.39685e-06 -6.41466e-06)
(1.02414e-06 1.66473e-07 -7.38764e-06)
(8.19478e-07 1.17775e-07 -9.54924e-06)
(-1.03357e-08 -2.12452e-09 -8.48463e-06)
(2.1759e-07 -3.17955e-07 -5.089e-06)
(-1.23447e-07 -1.17223e-07 -4.90821e-06)
(-3.64104e-07 -3.67328e-07 -8.23329e-06)
(1.40894e-06 -1.19948e-06 -6.45505e-06)
(-1.10841e-06 7.62284e-07 -8.78619e-06)
(7.03939e-07 2.00978e-06 -1.24211e-05)
(1.62311e-06 8.92352e-07 -8.79876e-06)
(9.31638e-07 9.24217e-07 -9.69422e-06)
(-5.14517e-07 -5.14338e-07 -8.99563e-06)
(-6.78063e-07 8.55057e-12 -9.08066e-06)
(-5.14505e-07 5.14364e-07 -8.99553e-06)
(-3.64164e-07 3.67342e-07 -8.23324e-06)
(-1.21552e-06 -1.39687e-06 -6.41465e-06)
(-2.10839e-06 2.09813e-06 -7.8905e-06)
(9.05023e-07 -1.61237e-06 -8.79295e-06)
(2.04158e-06 -6.99113e-07 -1.242e-05)
(7.69597e-07 1.10303e-06 -8.78272e-06)
(1.02413e-06 -1.66509e-07 -7.38774e-06)
(8.19475e-07 -1.17789e-07 -9.54922e-06)
(9.31675e-07 -9.24046e-07 -9.69404e-06)
(1.62288e-06 -8.92421e-07 -8.7991e-06)
(7.03744e-07 -2.00975e-06 -1.24209e-05)
(-1.10848e-06 -7.62299e-07 -8.78629e-06)
(1.40887e-06 1.19947e-06 -6.45502e-06)
(1.6595e-07 -1.02628e-06 -7.38246e-06)
(1.39903e-06 -5.47686e-07 -8.68198e-06)
(-2.49204e-08 -1.85234e-06 -1.2563e-05)
(-1.43415e-06 -5.00331e-07 -8.63464e-06)
(2.06341e-06 1.12174e-06 -6.70389e-06)
(-1.86525e-08 2.77566e-07 -8.24213e-06)
(-3.41668e-07 -2.24286e-07 -5.07246e-06)
(-2.09179e-06 1.21165e-06 -6.67558e-06)
(-1.78568e-08 -2.79153e-07 -6.72317e-06)
(-2.41363e-07 -3.56326e-07 -6.87319e-06)
(1.91961e-08 -5.49032e-08 -2.71309e-06)
(1.11916e-08 -2.80556e-08 -1.12768e-06)
(3.34952e-09 -1.29263e-08 -3.92243e-07)
(8.36133e-10 -4.47991e-09 -1.1459e-07)
(1.74281e-10 -1.24417e-09 -2.84932e-08)
(2.83311e-11 -2.92189e-10 -6.11174e-09)
(2.66186e-12 -6.20562e-11 -1.14297e-09)
(-1.41095e-11 -3.34395e-11 -9.85253e-10)
(2.56156e-10 -1.26173e-10 -7.91786e-10)
(-2.89836e-10 -1.07632e-10 -7.98797e-10)
(2.7522e-10 -9.22953e-11 -7.99604e-10)
(-2.78765e-10 -1.65929e-10 -8.19499e-10)
(5.70886e-10 5.167e-10 -1.95074e-09)
(-1.5358e-09 -1.01779e-09 -4.66452e-09)
(3.12273e-09 2.67134e-09 -1.02403e-08)
(-7.47036e-09 -5.32444e-09 -2.28738e-08)
(1.46364e-08 1.2062e-08 -4.69231e-08)
(-3.15739e-08 -2.38358e-08 -9.69598e-08)
(5.88124e-08 4.70356e-08 -1.84781e-07)
(-1.14453e-07 -9.08265e-08 -3.51342e-07)
(2.0049e-07 1.56145e-07 -6.17455e-07)
(-3.50105e-07 -2.91183e-07 -1.07353e-06)
(5.69863e-07 4.34811e-07 -1.72007e-06)
(-8.76197e-07 -7.64478e-07 -2.72592e-06)
(2.69915e-09 -2.73132e-08 -2.71451e-06)
(7.4395e-07 -7.38046e-07 -2.65671e-06)
(7.4268e-07 8.74748e-07 -2.71776e-06)
(5.23303e-07 -9.48301e-07 -2.64298e-06)
(-3.10946e-07 6.48686e-07 -1.71695e-06)
(3.70062e-08 -5.79214e-12 -1.13341e-06)
(-3.10888e-07 -6.48691e-07 -1.71697e-06)
(1.97644e-07 3.7964e-07 -1.04954e-06)
(2.80551e-07 -3.48714e-07 -1.0717e-06)
(2.81034e-07 2.78587e-07 -1.05219e-06)
(-1.5995e-07 -1.5643e-07 -6.09321e-07)
(-1.52454e-07 2.0312e-07 -6.19742e-07)
(1.43451e-08 3.74077e-09 -3.80004e-07)
(8.79213e-08 8.7272e-08 -3.45039e-07)
(3.29182e-09 1.56067e-08 -3.79033e-07)
(2.00517e-07 -1.56135e-07 -6.17488e-07)
(-1.04138e-08 -3.59627e-08 -6.53639e-07)
(-2.34095e-07 -1.04743e-07 -6.1636e-07)
(2.24509e-07 -1.18994e-07 -6.10782e-07)
(-1.16277e-09 1.5925e-08 -3.83502e-07)
(-1.25126e-07 6.57846e-08 -3.44658e-07)
(1.15075e-07 7.19752e-08 -3.43651e-07)
(-2.11692e-07 -1.33073e-07 -6.1376e-07)
(1.25022e-09 -3.78803e-08 -6.51434e-07)
(-3.83981e-07 2.12035e-07 -1.05188e-06)
(-2.48401e-09 3.65978e-08 -1.12729e-06)
(6.36918e-07 -3.28512e-07 -1.70045e-06)
(-9.58263e-07 5.53629e-07 -2.65741e-06)
(-4.23617e-09 2.34287e-08 -2.72143e-06)
(-1.51601e-06 -6.90422e-07 -3.88042e-06)
(-7.29807e-08 -1.06456e-07 -3.90268e-06)
(7.79813e-07 -6.66918e-08 -4.64337e-06)
(-5.36501e-08 -8.91626e-07 -8.60508e-06)
(1.65988e-07 1.02628e-06 -7.38253e-06)
(-2.09182e-06 -1.21169e-06 -6.67555e-06)
(-3.41644e-07 2.24247e-07 -5.07242e-06)
(5.12104e-08 5.86765e-08 -6.83221e-06)
(-4.06112e-08 -3.55583e-08 -4.11133e-06)
(-1.03188e-08 -6.50186e-12 -2.81098e-06)
(-8.8941e-09 -2.95474e-08 -2.66888e-06)
(-4.41802e-09 -1.6377e-08 -1.11448e-06)
(-1.82381e-09 -8.61194e-09 -3.87851e-07)
(-6.67963e-10 -3.20399e-09 -1.13397e-07)
(-2.12641e-10 -9.28288e-10 -2.82326e-08)
(-5.81547e-11 -2.24581e-10 -6.07042e-09)
(-1.37387e-11 -4.77801e-11 -1.14431e-09)
(-2.51049e-12 -2.35915e-12 -2.30402e-10)
(-9.01232e-13 -3.62843e-13 -9.03822e-11)
(-2.75927e-12 2.82851e-12 -7.88935e-11)
(-4.32277e-13 8.92244e-12 -2.0828e-10)
(-2.81262e-12 -1.03204e-12 -7.33628e-11)
(1.95563e-11 -1.01374e-11 -7.93734e-11)
(2.39263e-12 3.02643e-11 -1.04152e-10)
(-1.82475e-13 5.74003e-13 -2.17162e-10)
(-7.13681e-11 4.47728e-11 -2.89082e-10)
(6.92581e-11 3.36166e-11 -2.93294e-10)
(-7.84617e-11 3.2751e-11 -2.97925e-10)
(6.32481e-11 4.74488e-11 -2.9633e-10)
(-4.74359e-11 4.06478e-11 -2.6221e-10)
(6.20638e-11 -8.74865e-12 -1.27109e-10)
(-5.52884e-11 -7.61218e-11 -3.36606e-10)
(1.61298e-10 2.7585e-10 -8.55443e-10)
(3.01968e-11 -1.37983e-12 -1.03988e-09)
(-5.23014e-10 -6.09965e-10 -2.04301e-09)
(-5.2399e-10 5.11453e-10 -1.89984e-09)
(1.86795e-10 -1.76408e-10 -8.03398e-10)
(8.57734e-13 -4.04591e-11 -1.00454e-09)
(3.1982e-11 -1.29405e-10 -1.22141e-09)
(-1.89381e-12 1.98796e-12 -2.34191e-10)
(-1.83676e-12 2.74937e-12 -2.31231e-10)
(-1.48336e-12 2.35638e-12 -2.23623e-10)
(1.4167e-12 1.23632e-12 -1.6531e-10)
(1.37752e-11 1.25813e-11 -2.59665e-10)
(-5.324e-11 -2.08239e-11 -1.33314e-09)
(-6.85864e-11 -4.12239e-11 -1.06539e-09)
(2.95787e-11 3.5209e-11 -4.84883e-10)
(-4.08377e-11 -1.23776e-10 -1.18848e-09)
(-2.50045e-10 -7.79971e-10 -6.47563e-09)
(-4.12459e-10 -3.43592e-10 -5.99884e-09)
(-3.05433e-10 -1.80503e-10 -6.93279e-09)
(-1.46187e-09 -9.92041e-10 -3.18107e-08)
(-1.9217e-09 -1.75951e-09 -2.88327e-08)
(3.04693e-10 4.43251e-10 -1.4542e-08)
(8.52901e-11 1.23623e-10 -2.85477e-09)
(3.81098e-11 2.00923e-10 -2.70521e-09)
(-6.22556e-10 4.54748e-10 -1.90573e-09)
(6.51825e-10 3.99182e-10 -1.92005e-09)
(-1.62573e-09 -6.90188e-10 -4.53626e-09)
(1.5612e-09 -5.78779e-10 -4.52653e-09)
(-6.72145e-11 2.2037e-10 -2.35081e-09)
(-7.08822e-10 3.69897e-10 -1.94469e-09)
(-1.15956e-11 -3.93504e-11 -1.01196e-09)
(-7.02625e-12 -1.1104e-10 -1.20129e-09)
(-2.08219e-11 -7.45042e-10 -6.48171e-09)
(-4.20122e-11 -3.69159e-09 -3.07498e-08)
(-1.11623e-09 -3.77694e-09 -3.07113e-08)
(-4.19914e-09 -1.52123e-08 -1.24828e-07)
(-7.53875e-09 -7.22664e-09 -1.18827e-07)
(-5.98481e-09 -4.33882e-09 -1.26389e-07)
(-2.03895e-08 -1.53255e-08 -4.28809e-07)
(-2.51075e-08 -2.52342e-08 -4.17079e-07)
(2.14805e-09 3.03959e-09 -2.38619e-07)
(9.39135e-10 1.32716e-09 -6.36687e-08)
(7.55179e-10 2.68108e-09 -6.11389e-08)
(-1.57394e-08 1.02737e-08 -4.63996e-08)
(1.65078e-08 9.28843e-09 -4.63129e-08)
(-3.42739e-08 -1.7055e-08 -9.50119e-08)
(3.3613e-08 -1.44468e-08 -9.45133e-08)
(-1.09511e-09 3.92373e-09 -5.34253e-08)
(-1.74929e-08 8.2163e-09 -4.6762e-08)
(7.79478e-09 -3.13614e-09 -2.22521e-08)
(-2.91507e-10 1.00167e-09 -1.20282e-08)
(-3.79358e-09 1.8545e-09 -1.01946e-08)
(-4.73229e-11 -2.39268e-10 -5.51774e-09)
(3.53796e-09 2.06455e-09 -1.00818e-08)
(-8.02628e-09 -3.73431e-09 -2.23462e-08)
(2.30021e-12 1.05683e-09 -1.19286e-08)
(-3.38579e-09 2.29719e-09 -1.00777e-08)
(1.46562e-09 -7.80918e-10 -4.525e-09)
(-4.19458e-13 2.32589e-10 -2.32148e-09)
(-1.56888e-11 4.67546e-11 -2.8417e-09)
(-7.86234e-11 -7.19756e-11 -2.79479e-09)
(-5.33246e-10 -4.05317e-10 -2.09619e-09)
(2.62976e-11 2.48332e-11 -8.12824e-10)
(2.28208e-10 2.07802e-10 -8.89332e-10)
(1.07412e-11 -6.17045e-13 -3.43581e-10)
(-1.03787e-10 -6.43695e-11 -3.33762e-10)
(-1.88156e-11 -1.10914e-11 -1.13571e-10)
(5.28565e-11 -7.1521e-12 -3.64506e-10)
(-1.46027e-11 -9.1008e-12 -4.87181e-10)
(-3.89791e-12 1.23242e-11 -4.96651e-10)
(-1.75301e-12 4.90141e-11 -4.1041e-10)
(7.41057e-12 5.33018e-11 -4.76001e-10)
(-1.99475e-11 5.12448e-11 -4.82905e-10)
(-3.19899e-12 -3.54696e-13 -2.21412e-10)
(-3.76433e-11 3.09047e-11 -5.13642e-10)
(-9.6304e-13 1.03752e-12 -1.77148e-10)
(1.27667e-11 7.39859e-13 -2.4349e-10)
(1.48814e-10 -3.72559e-11 -1.30728e-09)
(4.51509e-11 -5.07939e-11 -1.09631e-09)
(-1.19315e-10 1.02274e-10 -2.97498e-09)
(-9.40735e-11 1.88748e-10 -2.7304e-09)
(2.41356e-10 -8.06442e-10 -6.59355e-09)
(1.18867e-09 -3.88867e-09 -3.11372e-08)
(4.83164e-09 -1.56519e-08 -1.26385e-07)
(-8.25234e-12 -1.51149e-08 -1.2523e-07)
(3.48249e-10 -5.25865e-08 -4.34277e-07)
(-1.34998e-08 -5.18816e-08 -4.31861e-07)
(-3.83533e-08 -1.51735e-07 -1.25965e-06)
(-7.28907e-08 -7.85615e-08 -1.23479e-06)
(-5.70754e-08 -4.42911e-08 -1.22558e-06)
(-1.48787e-07 -1.27332e-07 -2.8965e-06)
(-2.18699e-07 -2.44313e-07 -3.06561e-06)
(-1.45182e-08 -4.66643e-09 -2.01728e-06)
(1.95112e-09 4.01212e-09 -7.58452e-07)
(7.44981e-09 1.72894e-08 -7.40989e-07)
(-2.11684e-07 1.33068e-07 -6.13731e-07)
(2.24493e-07 1.19002e-07 -6.10752e-07)
(-3.83978e-07 -2.12019e-07 -1.05185e-06)
(3.8131e-07 -1.84729e-07 -1.04363e-06)
(-1.04223e-08 3.5963e-08 -6.53631e-07)
(-2.34071e-07 1.04743e-07 -6.16336e-07)
(1.23666e-07 -5.63635e-08 -3.42537e-07)
(-3.58201e-09 1.30054e-08 -2.03329e-07)
(-6.93424e-08 3.16711e-08 -1.84274e-07)
(-4.75023e-10 -4.82947e-09 -1.09276e-07)
(6.60609e-08 3.60434e-08 -1.82674e-07)
(-1.25124e-07 -6.57786e-08 -3.44644e-07)
(3.02306e-10 1.37364e-08 -2.02511e-07)
(-6.26735e-08 3.99434e-08 -1.83246e-07)
(3.13729e-08 -1.86789e-08 -9.47638e-08)
(4.57381e-11 4.14342e-09 -5.31289e-08)
(-8.39446e-11 8.12813e-10 -6.20813e-08)
(-4.82989e-11 2.08844e-10 -1.42523e-08)
(-3.55654e-10 -3.56983e-10 -1.3951e-08)
(-2.77026e-09 -2.23788e-09 -1.10333e-08)
(5.36973e-11 1.03196e-10 -4.49432e-09)
(1.28792e-09 1.13825e-09 -4.8879e-09)
(2.40566e-11 4.18374e-11 -1.96218e-09)
(1.39267e-10 -1.4158e-11 -2.02248e-09)
(-1.43328e-09 -1.03667e-09 -4.86148e-09)
(3.1321e-09 2.79151e-09 -1.10036e-08)
(-6.95675e-09 -5.19451e-09 -2.35407e-08)
(-6.95707e-09 5.19465e-09 -2.35407e-08)
(2.65483e-10 -1.22031e-10 -2.15085e-08)
(1.43435e-08 -1.25897e-08 -4.97232e-08)
(1.17786e-09 3.65312e-10 -4.54636e-08)
(-2.98244e-08 2.26063e-08 -9.95356e-08)
(7.13304e-10 -5.36922e-10 -8.82558e-08)
(5.66008e-08 -4.91494e-08 -1.94425e-07)
(2.65849e-09 1.47168e-09 -1.72789e-07)
(-1.09107e-07 8.39229e-08 -3.60326e-07)
(1.56918e-09 -2.35744e-09 -3.08687e-07)
(1.90296e-07 -1.62547e-07 -6.45147e-07)
(2.11416e-09 4.20624e-09 -5.54295e-07)
(-3.29878e-07 2.61468e-07 -1.09807e-06)
(4.91312e-09 -1.31803e-08 -9.05206e-07)
(5.40677e-07 -4.45643e-07 -1.78305e-06)
(-2.36335e-08 5.25598e-09 -1.47636e-06)
(-7.89816e-07 6.729e-07 -2.77913e-06)
(3.15443e-08 -8.65413e-08 -2.19011e-06)
(1.31762e-06 -9.69705e-07 -3.96987e-06)
(-2.20695e-07 -8.96114e-08 -3.25372e-06)
(-1.31335e-06 1.33623e-06 -5.84703e-06)
(-1.85279e-07 -1.86891e-11 -5.13597e-06)
(-1.31332e-06 -1.33621e-06 -5.84699e-06)
(3.72137e-07 7.63447e-07 -4.32794e-06)
(2.15678e-06 1.47313e-06 -5.8059e-06)
(-6.95771e-08 2.06532e-07 -3.38627e-06)
(-1.08751e-06 -1.03783e-06 -4.34395e-06)
(-3.52756e-08 -9.72109e-09 -2.21705e-06)
(8.2311e-07 6.48616e-07 -2.87589e-06)
(-1.12443e-08 5.15465e-08 -1.46791e-06)
(-4.89808e-07 -4.35632e-07 -1.85604e-06)
(-1.1735e-08 1.8802e-09 -9.17249e-07)
(3.0693e-07 2.56135e-07 -1.13731e-06)
(-3.53803e-09 1.43636e-08 -5.48096e-07)
(-1.75002e-07 -1.50819e-07 -6.64959e-07)
(-2.57382e-09 1.81267e-09 -3.11979e-07)
(9.87109e-08 8.391e-08 -3.71242e-07)
(-5.35766e-10 4.1548e-09 -1.702e-07)
(-5.16689e-08 -4.36748e-08 -1.99031e-07)
(-3.27079e-10 9.18629e-10 -8.89027e-08)
(2.69975e-08 2.3181e-08 -1.02035e-07)
(2.62677e-11 1.14601e-09 -4.46546e-08)
(-1.28767e-08 -1.06892e-08 -5.051e-08)
(4.79276e-11 3.45228e-10 -2.15415e-08)
(6.33211e-09 5.49692e-09 -2.39727e-08)
(5.41862e-11 2.63766e-10 -1.00416e-08)
(4.14516e-10 -7.22161e-11 -1.02626e-08)
(-5.25677e-10 -6.16109e-10 -1.57774e-08)
(-1.22588e-10 -1.20359e-10 -3.33021e-09)
(-2.78035e-11 -1.61985e-11 -6.64944e-10)
(1.12905e-11 8.09455e-12 -1.67222e-10)
(-2.39366e-12 -7.0356e-15 -1.2329e-10)
(-4.6185e-11 1.44293e-15 -3.20072e-10)
(-2.36591e-10 -1.61041e-13 -1.46988e-09)
(-1.07131e-09 -6.10232e-14 -7.08218e-09)
(-4.4266e-09 3.24106e-13 -3.1564e-08)
(-1.58591e-08 3.21958e-12 -1.23803e-07)
(-4.60437e-08 1.45622e-11 -4.15453e-07)
(-9.72192e-08 1.06688e-10 -1.16792e-06)
(-1.16499e-07 1.71518e-11 -2.69117e-06)
(-2.78757e-08 -1.82621e-11 -4.8254e-06)
(-1.89379e-07 -9.52022e-11 -6.66479e-06)
(-1.19981e-06 5.53906e-07 -6.27507e-06)
(-1.1998e-06 -5.53973e-07 -6.27504e-06)
(-1.21832e-06 -7.58657e-07 -5.41055e-06)
(-1.02599e-06 -7.9727e-07 -6.81286e-06)
(-2.74164e-07 -1.43864e-07 -4.39309e-06)
(-1.28575e-07 -4.01159e-07 -3.06911e-06)
(-5.70592e-07 -1.35906e-06 -6.36497e-06)
(7.80905e-07 3.29635e-06 -4.64663e-06)
(1.04024e-06 -1.23259e-07 -4.75564e-06)
(3.83125e-08 1.1263e-07 -3.89348e-06)
(2.3359e-08 9.33314e-09 -3.96641e-06)
(4.07248e-08 -5.01814e-08 -3.89054e-06)
(-2.20658e-07 8.96128e-08 -3.25368e-06)
(1.31753e-06 9.6976e-07 -3.96981e-06)
(3.15698e-08 8.64916e-08 -2.19007e-06)
(-7.89811e-07 -6.72874e-07 -2.77912e-06)
(-9.7719e-08 -7.99722e-12 -2.55432e-06)
(-8.42836e-08 -6.83117e-12 -2.70419e-06)
(-4.7159e-08 -7.55991e-12 -1.13113e-06)
(4.9369e-09 1.31746e-08 -9.05175e-07)
(-3.29867e-07 -2.61463e-07 -1.09807e-06)
(5.40641e-07 4.45637e-07 -1.78298e-06)
(-2.3643e-08 -5.2573e-09 -1.47637e-06)
(-1.41543e-08 -3.05681e-08 -1.85584e-06)
(-1.04312e-08 -1.40723e-08 -7.0791e-07)
(2.10952e-09 -4.21368e-09 -5.54287e-07)
(1.90264e-07 1.62548e-07 -6.45125e-07)
(1.57537e-09 2.35206e-09 -3.0868e-07)
(-1.09097e-07 -8.39234e-08 -3.6033e-07)
(-7.43446e-09 9.35829e-13 -3.61095e-07)
(-1.95006e-08 5.81126e-13 -3.9431e-07)
(-6.38828e-09 -4.64647e-13 -1.15448e-07)
(-1.69923e-09 -3.15307e-13 -2.87999e-08)
(2.66095e-10 1.21001e-10 -2.15077e-08)
(1.43423e-08 1.25894e-08 -4.97205e-08)
(-2.98236e-08 -2.26055e-08 -9.95365e-08)
(5.65972e-08 4.91515e-08 -1.94418e-07)
(2.65989e-09 -1.47115e-09 -1.72782e-07)
(-4.36176e-09 -5.09458e-09 -2.25126e-07)
(-1.37853e-09 -1.48455e-09 -6.05154e-08)
(6.75214e-11 -3.00835e-13 -2.94227e-08)
(5.8536e-12 -8.32781e-14 -6.30103e-09)
(1.15467e-13 -1.02937e-14 -1.19106e-09)
(-6.71026e-11 -1.9659e-14 -1.18762e-09)
(1.46662e-11 -1.5585e-11 -8.56399e-10)
(5.96042e-10 5.50695e-10 -2.16832e-09)
(3.22073e-11 -1.72146e-14 -1.05149e-09)
(5.96069e-10 -5.50767e-10 -2.16839e-09)
(1.39122e-10 1.40962e-11 -2.02258e-09)
(-1.4333e-09 1.03664e-09 -4.86162e-09)
(7.54943e-11 -8.10647e-12 -4.55044e-09)
(3.13267e-09 -2.79191e-09 -1.10044e-08)
(4.14609e-10 7.20434e-11 -1.0263e-08)
(-3.55626e-10 3.5669e-10 -1.39512e-08)
(-3.71991e-10 -3.73878e-14 -6.22073e-09)
(7.55314e-11 7.84982e-12 -4.5501e-09)
(1.40492e-11 -1.01239e-13 -5.42296e-09)
(-7.86005e-11 7.18949e-11 -2.79484e-09)
(-1.45933e-11 9.0832e-12 -4.87199e-10)
(-1.03817e-10 6.43785e-11 -3.33806e-10)
(1.07618e-11 6.25755e-13 -3.43623e-10)
(2.2819e-10 -2.07829e-10 -8.89427e-10)
(5.28268e-11 7.13105e-12 -3.64545e-10)
(9.68513e-11 -9.98e-11 -4.12422e-10)
(-3.76808e-12 1.68122e-11 -1.48329e-10)
(-6.02014e-11 3.11719e-11 -1.40685e-10)
(1.70979e-11 -4.43907e-15 -2.10593e-10)
(1.43022e-11 -1.63323e-11 -7.71711e-11)
(1.9679e-11 5.60038e-12 -5.86013e-11)
(1.17516e-11 -2.29399e-11 -7.99737e-11)
(2.88877e-11 -6.50639e-12 -8.80045e-11)
(1.94459e-11 -1.30016e-11 -1.48607e-10)
(9.34188e-12 -1.20017e-12 -8.62876e-11)
(-3.77668e-12 -3.52224e-12 -6.36104e-11)
(4.35201e-12 -2.80213e-12 -7.2742e-11)
(-7.61948e-13 7.10791e-13 -5.28455e-11)
(-1.14654e-12 2.86421e-12 -5.36675e-11)
(5.97562e-12 -6.10911e-12 -6.16657e-11)
(-1.23423e-12 1.47112e-12 -4.99478e-11)
(7.65964e-13 -6.49402e-12 -6.67477e-11)
(-3.9511e-13 2.97579e-12 -5.55518e-11)
(-4.96322e-13 4.27133e-15 -5.58725e-11)
(-3.94605e-13 -2.97538e-12 -5.55576e-11)
(-3.3659e-13 -1.59296e-12 -5.12635e-11)
(-1.97622e-13 1.14156e-11 -8.26405e-11)
(7.67053e-13 6.49463e-12 -6.67508e-11)
(-3.42294e-13 1.6222e-12 -7.63841e-11)
(4.35327e-12 2.80612e-12 -7.275e-11)
(-2.55634e-12 -1.62629e-12 -7.09174e-11)
(-3.79209e-12 3.53655e-12 -6.36244e-11)
(9.33794e-12 1.20365e-12 -8.62758e-11)
(-9.6057e-13 1.62736e-12 -7.89105e-11)
(9.18894e-13 -2.86065e-12 -5.6948e-11)
(8.58269e-13 -1.56999e-12 -5.35462e-11)
(-1.61387e-12 6.61523e-12 -6.90882e-11)
(-7.03179e-12 6.36516e-12 -6.74717e-11)
(6.19093e-13 -4.14819e-13 -5.92528e-11)
(-5.40506e-12 2.27936e-12 -7.51555e-11)
(6.26771e-12 1.38078e-11 -7.7689e-11)
(2.26738e-11 -1.10968e-11 -9.4669e-11)
(-2.56956e-11 2.51706e-11 -1.04195e-10)
(-1.67665e-12 8.0851e-12 -2.01219e-10)
(7.9533e-13 2.90486e-15 -5.68395e-11)
(-1.85334e-13 1.74669e-14 -1.00141e-10)
(7.67244e-13 4.19342e-15 -2.56198e-10)
(-4.01513e-12 -1.30827e-15 -2.57255e-10)
(-1.34237e-12 8.45626e-15 -9.9802e-11)
(-1.66415e-11 -3.68154e-15 -1.21289e-09)
(-7.00162e-11 7.79569e-16 -6.37435e-09)
(-2.52854e-10 -7.95816e-14 -2.96467e-08)
(-7.77341e-10 -3.82529e-13 -1.19214e-07)
(4.37012e-10 -1.54199e-13 -1.18712e-07)
(2.1076e-09 1.4805e-12 -4.0776e-07)
(8.19099e-09 3.47584e-12 -1.17546e-06)
(2.37825e-08 -5.61981e-12 -2.81563e-06)
(-9.67106e-08 -1.40783e-11 -6.34866e-06)
(-4.47808e-07 3.78862e-12 -5.98788e-06)
(1.49398e-06 -5.72626e-11 -1.04869e-05)
(-2.27269e-07 -9.70792e-07 -5.98132e-06)