/*--------------------------------*- C++ -*----------------------------------*\
| =========                 |                                                 |
| \\      /  F ield         | OpenFOAM: The Open Source CFD Toolbox           |
|  \\    /   O peration     | Version:  2306                                  |
|   \\  /    A nd           | Website:  www.openfoam.com                      |
|    \\/     M anipulation  |                                                 |
\*---------------------------------------------------------------------------*/
FoamFile
{
    version     2.0;
    format      ascii;
    arch        "LSB;label=32;scalar=64";
    class       volScalarField;
    location    "0.4";
    object      gradTy;
}
// * * * * * * * * * * * * * * * * * * * * * * * * * * * * * * * * * * * * * //

dimensions      [0 -1 0 1 0 0 0];

internalField   nonuniform List<scalar> 
2658
(
0.00771203
0.00463824
0.00128027
3.44494e-05
-0.00953573
0.011476
-0.00747592
0.00630836
0.000233131
-0.0082291
0.0020731
-0.0277703
0.0190486
0.0192742
0.0160509
0.0162655
0.0174748
0.016077
0.0164052
0.0190542
0.0185515
0.0166701
0.0057635
-0.00291059
0.00524412
0.0174124
-0.00350113
0.00120477
0.0141868
-7.56942e-07
-0.014187
0.0035013
-0.0174133
-0.00576371
-0.00524401
0.0029109
0.000233759
0.00151233
-0.0166751
-0.0185525
-0.0190555
-0.0164058
-0.0160758
0.00729706
0.000136616
0.00057009
-0.00207319
0.00762073
-0.0162683
-0.016051
-0.019273
-0.019049
-0.0174479
0.00330369
-0.00657696
-0.00541068
0.000460851
-0.00670429
-1.53672e-07
0.000211297
-0.00046054
0.00541073
0.00657757
-0.00330403
0.0020228
-0.00789918
-0.00930326
-0.000600634
-0.0127181
0.0127181
9.00378e-08
0.00810494
-0.000191377
0.00491121
4.44602e-05
-0.00381164
-0.00371617
0.000314112
0.00248876
0.00157916
-0.002516
-0.000702923
0.00425074
0.00653391
1.22196e-05
-1.17856e-05
1.68063e-05
9.58301e-06
3.17025e-06
8.31418e-07
2.00176e-07
-4.82344e-08
2.54415e-09
1.01857e-07
-3.32855e-08
-2.58774e-07
-9.3285e-09
-9.75256e-08
-1.36371e-08
-2.89988e-08
-9.75991e-08
-2.15669e-08
-2.05728e-07
-4.18152e-08
-5.0484e-08
9.34548e-08
-4.0617e-08
-5.27644e-08
1.38381e-08
-9.55831e-08
2.51907e-08
-3.71653e-08
-7.54995e-11
3.71675e-08
-2.51634e-08
9.55721e-08
5.05459e-08
-9.35553e-08
2.05741e-07
4.19027e-08
2.14923e-08
9.7571e-08
2.90259e-08
1.36215e-08
-7.81789e-08
-7.18905e-08
-1.01978e-07
2.58798e-07
9.39626e-09
3.32605e-08
1.0112e-07
1.63001e-08
4.48944e-08
6.32937e-08
9.92506e-08
-5.07309e-08
2.46326e-08
4.17547e-08
-1.65686e-07
1.65876e-07
-2.45348e-08
5.07791e-08
-2.59661e-08
-2.38417e-08
-1.89223e-10
2.38501e-08
1.70966e-10
1.9483e-10
-5.56861e-08
5.48618e-08
2.52599e-10
5.65356e-09
4.09855e-08
-4.88979e-08
1.69512e-07
3.70433e-08
1.67614e-07
2.0831e-07
2.24844e-07
1.67658e-07
1.70634e-07
2.09718e-07
1.75456e-07
1.6002e-07
2.19892e-07
2.07146e-07
1.66878e-07
5.5653e-08
8.23628e-08
2.61385e-07
-1.22276e-06
3.78895e-06
-7.51538e-06
1.95747e-05
-3.96788e-05
8.8311e-05
-0.000178144
0.00034428
-0.000677474
0.00114283
-0.00216661
0.00318758
-0.0058088
0.00729498
0.00733654
0.00619844
0.00590108
0.00822941
0.00953546
-3.45032e-05
-0.0114763
0.00930335
0.00789876
-0.00202263
0.0277702
-0.00381408
-1.23384e-05
1.16989e-05
-1.68105e-05
-9.58839e-06
-3.17456e-06
-8.30757e-07
-2.00182e-07
4.82132e-08
-2.61899e-09
-4.51887e-09
-5.89807e-08
7.76371e-08
-6.21507e-08
6.21686e-08
5.91228e-08
4.47734e-09
-7.77893e-08
-1.35114e-08
7.18734e-08
7.81727e-08
-2.58532e-07
8.65697e-08
8.77782e-09
8.81295e-09
-2.4329e-08
3.03496e-09
2.01145e-08
3.67364e-08
-3.59081e-11
-3.67611e-08
-8.86315e-09
4.06273e-08
-8.66631e-08
5.2813e-08
-7.80801e-08
7.82369e-08
8.67266e-08
1.07271e-11
-5.11726e-08
-7.19487e-08
7.20466e-08
-7.62912e-08
5.12858e-08
-1.38708e-08
6.05779e-11
-2.44935e-08
-1.25469e-08
5.21829e-08
-6.15085e-09
3.01552e-11
1.56201e-11
-3.85125e-11
-1.43663e-07
1.11129e-07
1.96166e-07
-4.78242e-08
1.39635e-07
-2.66454e-07
8.529e-07
-1.55899e-06
1.55871e-06
1.32623e-07
3.46468e-06
-3.57594e-07
-9.73001e-06
1.913e-05
-2.25426e-06
-4.69838e-05
9.13689e-05
-9.81049e-06
-0.00019813
0.000373306
-3.55903e-05
-0.000717116
0.00128921
-0.000122922
-0.00218897
0.00372357
-0.000440858
-0.00554395
0.0088709
-0.00176605
-0.0125904
-0.00652632
-0.0153403
0.0153405
-0.00120424
-0.00499865
0.00829675
0.0073857
-2.88528e-07
-0.00501728
0.00501703
0.00539254
-2.04645e-07
-0.00639571
0.00639552
0.00271723
-1.97594e-07
-0.0175503
0.01755
-0.0120073
1.84131e-07
0.0120071
-0.00942743
0.00597513
0.0137802
0.0100167
0.0110503
-0.0179324
0.0119389
0.00142285
0.00100662
-1.81583e-05
-0.00271757
-0.00100191
-0.00313956
-0.010252
0.00651525
0.0171776
0.00762694
0.00789929
-0.00439606
7.30818e-08
0.00439627
0.00313968
-0.011939
0.0179327
-0.0137809
-0.00597533
0.00942761
-0.00142315
-0.00100674
-0.00789783
-0.00762753
-0.0171773
-0.00651538
0.0102519
-0.00877164
-0.00468108
-0.015832
-0.00427633
0.00958753
0.00237236
-0.00191698
0.010356
-0.00238592
-0.00304552
-0.000469258
-0.000239791
-0.000110481
-3.82898e-05
-1.06339e-05
-2.49734e-06
-5.30395e-07
-2.85807e-07
-1.0784e-06
-9.1993e-07
-7.88849e-07
-1.4182e-06
4.41624e-06
-8.69904e-06
2.2832e-05
-4.5508e-05
0.000103094
-0.000203725
0.000402013
-0.000776295
0.00133458
-0.00248875
0.00371634
-0.006534
-0.000233446
-0.00630809
0.00747648
-0.00810514
0.00554432
-4.95055e-08
-0.00554437
0.00324478
-0.00298046
0.00238109
-0.00133701
0.00173607
3.19724e-05
0.000745914
0.00013339
-0.00133449
-0.000307374
-0.000895242
-0.00101704
0.000136111
0.000562262
0.000615173
-0.00113737
-0.000323763
0.00181227
0.000312802
-0.0028078
0.00473187
0.000200246
-0.00590104
-0.000909883
-0.000570015
-0.00762073
0.00877161
-0.0103563
0.00191664
0.000501509
-0.000303917
-5.55715e-08
-0.000252542
-0.000139974
-7.36064e-05
-2.73845e-05
-7.93408e-06
-1.9195e-06
-4.08377e-07
-2.01636e-08
-3.10122e-09
2.41753e-08
7.62602e-08
-8.82087e-09
-8.66447e-08
2.58669e-07
4.90601e-09
3.82674e-07
2.87321e-07
2.79923e-07
4.05545e-07
3.47417e-07
-7.47748e-08
-6.50614e-07
2.35769e-06
-1.17934e-08
-5.21338e-06
4.37139e-06
-1.50776e-06
-3.45804e-07
-1.10603e-06
1.69911e-08
2.34989e-08
2.014e-08
1.05669e-08
1.07532e-07
-1.77982e-07
-3.52341e-07
3.00931e-07
-1.05792e-06
-6.66642e-06
-2.93668e-06
-1.54276e-06
-8.47898e-06
-1.50386e-05
3.78847e-06
1.0566e-06
1.71729e-06
3.88674e-06
3.41181e-06
-5.89904e-06
-4.94683e-06
1.8835e-06
3.16152e-06
-3.36328e-07
-9.49062e-07
-6.36788e-06
-3.15521e-05
-3.22816e-05
-0.00013002
-6.17662e-05
-3.70839e-05
-0.000130987
-0.000215677
2.59794e-05
1.13433e-05
2.29152e-05
8.78093e-05
7.93883e-05
-0.000145769
-0.000123477
3.35362e-05
7.02248e-05
-2.68047e-05
8.56127e-06
1.58504e-05
-2.04503e-06
1.76458e-05
-3.19172e-05
9.03277e-06
1.96341e-05
-6.67451e-06
1.98794e-06
3.99612e-07
-6.15176e-07
-3.46425e-06
2.1225e-07
1.77608e-06
-5.27389e-09
-5.50166e-07
-9.47981e-08
-6.1129e-08
-7.77846e-08
1.05335e-07
4.18924e-07
4.55571e-07
4.3799e-07
-3.03159e-09
2.64142e-07
8.86766e-09
6.32358e-09
-3.18427e-07
-4.34136e-07
8.74133e-07
1.61323e-06
-6.89267e-06
-3.32365e-05
-0.000133777
-0.000129187
-0.000449458
-0.000443432
-0.00129688
-0.000671465
-0.000378556
-0.00108831
-0.00208814
-3.9884e-05
3.42916e-05
0.000147772
0.00113733
0.00101711
-0.00181213
-0.00157888
0.000307376
0.000895243
-0.000481739
0.000111157
0.000270693
-4.12776e-05
0.000308064
-0.000562211
0.000117405
0.000341397
-0.000159648
3.54139e-05
6.94712e-06
1.78499e-06
-3.05114e-06
-1.91271e-05
8.82021e-07
9.72863e-06
3.57585e-07
-1.21008e-07
-8.86044e-06
2.38591e-05
-4.43975e-05
4.43987e-05
-1.043e-06
-0.000107605
3.12232e-06
0.000193216
-4.58908e-06
-0.00042008
1.25784e-05
0.00071729
-2.0149e-05
-0.00138929
3.59508e-05
0.00223477
-0.000112652
-0.00380891
4.49229e-05
0.00575128
-0.000739669
-0.00828808
-0.00076591
0.0114208
-1.59736e-07
-0.0114206
0.00652519
0.0125908
0.00176523
-0.00887037
-8.30862e-05
0.00554373
0.000440568
-0.00372335
1.60701e-05
0.00218919
0.000122766
-0.00128905
1.54929e-05
0.000717179
3.55111e-05
-0.000373288
7.85153e-06
0.000198128
9.79499e-06
-9.13611e-05
2.95066e-06
4.69822e-05
2.25441e-06
-6.17232e-07
-5.26589e-06
-1.02871e-06
-1.38449e-07
6.91842e-08
-6.01333e-11
1.23327e-11
-1.37642e-09
-5.21566e-10
2.77013e-09
2.75178e-08
1.24463e-07
9.11867e-07
1.46597e-07
-1.56086e-07
-8.13694e-07
0.00473424
-0.00473481
-0.00648425
-0.00681427
-0.00122961
-0.00342871
-0.0116159
0.028174
-0.00105349
0.000962647
7.97705e-05
-0.000428901
0.000765921
0.00828855
0.000739244
-0.00575106
-6.83523e-08
-5.83861e-08
-6.46146e-08
0.000112604
-0.00223472
0.00380886
-4.49342e-05
-0.000261266
-0.000120276
-3.60143e-05
0.0013893
2.01031e-05
-0.000717294
7.99854e-09
4.96689e-09
-3.97134e-09
-2.69493e-09
1.03419e-06
0.000107601
-0.00019321
0.000420098
-1.2574e-05
-4.35434e-05
-1.26884e-05
-2.57124e-09
-7.11779e-10
-8.79807e-11
-1.68026e-10
-1.33205e-07
4.70679e-06
-1.47133e-10
-4.70741e-06
1.2048e-07
8.8602e-06
-6.9286e-08
-2.38625e-05
6.15755e-07
3.04863e-06
-3.19554e-10
6.70925e-08
-8.65287e-10
6.14486e-07
7.76342e-08
5.50243e-07
5.34834e-09
-1.77632e-06
6.09492e-08
-8.52992e-07
1.43694e-07
2.66426e-07
-3.79408e-11
-1.39593e-07
4.78665e-08
-1.96067e-07
-5.56102e-08
-1.11125e-07
-1.02579e-08
-3.01046e-08
-2.39498e-08
6.07513e-09
2.44804e-08
-5.22146e-08
1.25737e-08
-5.55044e-08
2.54341e-08
3.65071e-11
-2.54306e-08
-1.36151e-08
9.75691e-08
5.55096e-08
1.3865e-08
2.39839e-08
-1.38999e-08
3.02269e-08
1.02876e-08
1.39091e-08
-2.445e-08
-1.34187e-08
5.65404e-08
5.44031e-08
-3.54546e-09
1.94817e-08
1.18015e-07
-9.48443e-08
2.15133e-07
6.91034e-08
2.48278e-11
1.49289e-10
3.58412e-11
-1.11818e-11
7.22757e-11
-3.14662e-11
6.66298e-12
-6.80184e-10
-3.26948e-09
-1.31794e-09
1.26538e-08
2.9708e-08
-4.80325e-08
-1.20327e-07
3.23814e-08
-4.89424e-07
-0.00829736
0.00499887
-0.00444992
0.00729377
-0.00729399
0.00444962
-0.0143228
0.00148458
-0.00573865
0.0124003
0.00318086
-0.000182897
0.0113909
-0.00879587
-0.00701535
-0.0170925
-0.0060548
-0.00848095
-0.0103281
-0.00660108
0.000886698
0.00610777
0.00192795
-1.70022e-06
2.61085e-07
-0.00192726
0.0143224
0.00573825
-0.00148489
0.00398516
-0.00318117
-0.0113913
0.0001826
0.00121155
-0.00237261
-0.00958769
0.00427563
0.0158314
0.00468107
0.0069261
-0.00594584
-0.00610924
7.23403e-07
-0.00186556
-0.00398531
0.000518506
-0.000233149
-0.00674001
0.0059456
0.00142426
-0.00692608
0.000135454
1.78572e-05
0.00100162
-0.000501576
0.000303788
0.000909823
-0.000819616
-0.00359786
-0.00134267
0.000272384
0.0032126
0.00280817
-0.00473188
-0.00425025
0.000702992
0.00251597
-0.000312854
0.000228334
-0.00135929
-0.000459698
0.000130372
5.87206e-05
2.10038e-05
6.26833e-06
6.7614e-06
-3.52556e-05
-8.56253e-06
2.90807e-06
2.26957e-05
-4.82466e-07
-2.7766e-05
6.29958e-05
-2.69707e-06
-0.000128444
0.000102365
-4.45325e-05
-9.87085e-06
-0.000197173
-1.10197e-05
-0.000512078
0.000399668
-4.02524e-05
-0.000745831
-3.19663e-05
-0.00173603
0.0013369
-0.000133396
-0.00238097
-4.4247e-05
-0.00491137
0.00381132
-0.000314349
-0.000245173
-0.00356634
-0.0117758
-0.0118139
-0.0174794
-0.00078733
0.0253154
-0.00188836
-0.00219313
-0.00128007
-0.000427867
-0.000145258
-4.28601e-05
-1.0811e-05
-2.25051e-06
-3.07446e-06
2.74292e-06
1.51872e-06
3.18998e-05
2.91641e-10
-3.19039e-05
6.76359e-05
-6.64299e-09
-0.000146343
0.000146329
-6.76385e-05
-2.73628e-09
-5.13145e-10
-3.82654e-11
1.1375e-07
4.00718e-07
3.11338e-08
7.41146e-07
2.08524e-10
-7.41263e-07
2.45678e-06
-1.8796e-10
-6.0713e-06
6.07064e-06
-2.45647e-06
1.34834e-07
1.56198e-07
-7.47109e-08
7.48347e-08
-2.61476e-08
-1.6221e-08
-1.56219e-07
6.50719e-07
7.49163e-08
-3.47518e-07
1.50805e-06
1.13819e-08
-4.37213e-06
5.21368e-06
-2.35747e-06
-3.05904e-08
-1.13763e-07
-1.05411e-07
5.3049e-07
-2.11785e-07
1.22323e-06
2.86123e-07
-3.88645e-06
-1.98738e-06
5.8994e-06
2.04505e-06
-1.58505e-05
-8.56244e-06
2.68168e-05
4.55081e-05
9.87537e-06
-0.000102375
0.00012844
2.70177e-06
4.45424e-05
-2.27001e-05
2.77682e-05
4.82124e-07
8.66975e-06
2.07124e-06
-2.2831e-05
8.69974e-06
4.94881e-06
-3.162e-06
-1.88303e-06
-4.41573e-06
3.45927e-07
1.41825e-06
7.88989e-07
3.3628e-07
-3.41169e-06
9.20024e-07
1.07886e-06
-3.82694e-07
-4.18645e-07
-2.87107e-07
5.14961e-07
-2.79851e-07
-4.00588e-07
-4.05434e-07
5.14666e-07
-1.67593e-07
-1.70613e-07
3.23281e-09
-4.37951e-07
-4.55599e-07
-3.00897e-07
-1.07555e-07
-6.92024e-08
1.38308e-07
1.02896e-06
1.7806e-07
1.54531e-06
5.26352e-06
2.23795e-05
8.48882e-06
3.71114e-05
7.75336e-05
-7.75896e-05
-2.23842e-05
-3.12796e-06
-0.000207566
0.000207397
0.000131025
0.000378757
0.000396253
-0.000396699
-0.000564831
0.000565227
0.00108953
0.00648503
0.00681459
0.00123222
-0.007295
0.000144586
-0.00733648
-0.000962754
-0.000136748
-0.0253157
0.00238579
0.00304536
0.000469048
0.00023971
0.000110414
3.82778e-05
1.06298e-05
2.49756e-06
-8.81299e-07
7.51759e-06
1.77151e-06
-1.9634e-05
-9.03397e-06
3.19178e-05
1.00225e-05
-7.02235e-05
-3.35177e-05
0.00012352
0.000203739
4.02379e-05
-0.000399719
0.000512072
1.10489e-05
0.000197215
-0.000267152
-6.1757e-06
0.000288795
-1.48058e-08
-0.00057988
0.000579845
-0.00028882
6.16443e-06
0.000267185
1.07136e-05
1.96188e-09
1.59683e-09
3.12962e-10
3.63601e-10
-1.34895e-07
-6.26888e-09
-1.6961e-07
4.91694e-08
1.60185e-08
-9.9329e-08
-6.33124e-08
-4.4969e-08
-2.15199e-07
-1.62878e-08
-1.01044e-07
-2.24686e-07
-2.08245e-07
-6.93248e-08
-1.67641e-07
-3.70563e-08
-8.90012e-09
-1.68559e-08
-2.33534e-08
-2.00151e-08
-2.19869e-07
-1.59982e-07
-4.82477e-09
-1.75452e-07
-2.09716e-07
4.95348e-07
-2.61416e-07
9.48628e-08
-8.24939e-08
-2.07118e-07
-1.67049e-07
-1.03552e-08
1.05866e-06
3.51927e-07
-1.05537e-06
-3.78847e-06
-1.71715e-06
6.67731e-06
6.66796e-06
2.95256e-06
-3.78197e-06
-1.95737e-05
3.96891e-05
8.56806e-06
-8.78046e-05
-3.54097e-05
0.000159686
0.000145774
4.12747e-05
-0.00027073
-0.000111163
0.000481873
0.000776281
-0.00040198
-5.87093e-05
-6.48836e-05
-0.000341357
-0.000117372
-0.000308039
2.73752e-05
7.9303e-06
1.91859e-06
4.08343e-07
-3.99777e-07
-1.7856e-06
-6.94896e-06
1.26808e-05
4.35226e-05
-2.31739e-05
2.31576e-05
6.41699e-05
0.000323697
-0.00199894
-0.000256203
0.000138686
0.000729855
-0.00541081
-0.000144912
0.000204353
8.53926e-05
2.97813e-05
8.70591e-06
2.18352e-06
4.7897e-07
3.12446e-07
1.29281e-05
-1.37571e-05
1.37581e-05
-1.29266e-05
-3.13138e-07
-4.7882e-07
-2.18452e-06
-1.51557e-06
-6.29922e-05
-2.74533e-06
-6.18033e-07
3.19602e-07
2.2537e-06
1.08172e-05
-1.07136e-05
-8.03086e-06
-2.90361e-06
-6.26795e-06
-6.76056e-06
3.52637e-05
3.22984e-05
1.51238e-05
-1.13101e-05
-8.83072e-05
0.000178179
3.49658e-05
-0.000344272
0.000677598
0.000113899
-0.00114277
0.00216673
0.000256075
-0.00321289
-0.000730079
0.00541112
0.00580912
8.30675e-05
-0.00318741
-1.59955e-05
3.99688e-05
-3.39214e-05
-2.58551e-05
6.20363e-05
0.00013007
0.000443606
0.000216704
0.00129691
0.000674851
0.00342923
0.00208567
0.0116155
-0.0281739
-0.000233961
-0.00151107
0.0103275
0.00605431
0.0170927
0.00701547
0.00879578
-0.00729695
0.00105379
0.000786993
-0.0061983
0.000252393
0.000139905
7.35695e-05
-2.10745e-08
-3.8596e-08
-0.000138728
0.000261217
0.000120232
-6.41831e-05
-8.5453e-05
-1.24176e-08
-7.52806e-09
-2.97924e-05
-8.71345e-06
-2.15677e-05
-0.00097177
0.00105595
-2.83344e-08
-0.00195951
0.00195944
-0.00105602
2.15502e-05
0.000971853
3.5771e-05
1.43868e-05
-6.11239e-05
8.04105e-06
-1.51108e-05
-1.25441e-05
-0.000215208
0.000100281
0.00298044
-0.00324473
6.64585e-05
-3.74506e-08
-2.80977e-08
-8.63985e-08
-1.02556e-07
-0.00539314
0.000795961
-7.9912e-05
0.00042869
-0.000518311
-0.00738673
0.00186555
0.000232544
0.00673962
0.0066003
-0.0123999
0.00848002
-0.000886877
-0.00142488
-3.45888e-07
0.00381399
0.00670413
-0.000353998
4.50494e-07
0.000238586
0.000191379
0.000354161
-0.00463855
-0.00771285
-0.00725087
1.8421e-08
-0.000211278
6.87479e-07
0.000600537
2.44832e-07
3.23212e-08
2.09526e-09
-3.57738e-05
4.2895e-05
0.000145299
-0.000100319
-6.65758e-05
1.26056e-05
-1.4352e-05
0.000133832
3.32467e-05
6.89757e-06
1.10643e-06
9.49636e-07
6.37051e-06
3.15618e-05
-2.29039e-05
-7.93835e-05
0.000129216
0.000449561
-0.000147681
0.00199928
-0.0002719
-0.000228189
-0.000130231
0.000459909
0.00135987
0.00134302
0.00359855
0.0118136
0.000819567
0.00356608
0.0117754
0.00188784
0.000245149
-0.000238788
0.000427755
0.00069465
0.00219344
0.000215538
-2.10047e-05
-0.000103075
-1.61344e-06
-8.73805e-07
-2.64084e-07
4.34767e-07
3.0779e-06
1.51478e-05
6.11653e-05
-0.000204386
-0.000693869
-1.54741e-05
-7.84933e-06
-2.9497e-06
-1.76453e-05
6.17448e-07
-8.66734e-06
-2.07054e-06
1.33267e-08
2.44404e-08
-1.39151e-08
-1.94563e-08
7.28493e-13
3.58829e-09
-5.43873e-08
-5.65497e-08
1.36068e-08
9.48629e-08
-1.17991e-07
-4.18556e-08
-4.0829e-08
2.60794e-08
1.62388e-08
2.60549e-08
-1.58614e-08
6.49176e-05
-0.00061498
-0.000113932
-0.000200295
-0.00121182
-0.000796168
-0.000135216
1.33803e-08
-4.89051e-11
4.5542e-06
7.66046e-10
2.99128e-10
-5.37789e-09
-3.49629e-05
-0.000136063
-1.77116e-06
-1.00202e-05
-4.95275e-07
-5.14798e-07
-5.14513e-07
-0.0110495
-0.0100166
0.00195964
-2.30762e-07
-0.00195933
0.0174479
0.00725041
-9.05252e-09
-6.30815e-09
3.1882e-07
1.13356e-08
1.50717e-06
-2.35756e-06
5.21292e-06
-4.37136e-06
3.45716e-07
1.41767e-06
-4.05554e-07
5.14379e-07
-2.08371e-07
-2.24914e-07
-1.6772e-07
-1.70746e-07
-2.09741e-07
-1.75556e-07
-1.60138e-07
-2.20159e-07
-2.07193e-07
-1.67288e-07
-5.57782e-08
9.47108e-08
-1.11303e-07
-1.96237e-07
4.77193e-08
-1.02308e-08
-1.39572e-07
8.02381e-12
1.39597e-07
-4.78349e-08
1.96168e-07
5.56845e-08
1.11234e-07
-9.48142e-08
2.61329e-07
8.23957e-08
1.67333e-07
2.07112e-07
2.19906e-07
1.60054e-07
1.75586e-07
4.97962e-09
2.87221e-07
2.79843e-07
4.05463e-07
-3.09947e-09
1.70793e-07
1.67685e-07
2.24869e-07
2.08404e-07
1.67886e-07
6.94996e-08
3.72543e-08
1.63133e-08
1.56305e-07
7.41332e-07
2.00381e-11
7.46298e-08
-1.56242e-07
-1.62186e-08
-3.71984e-08
-6.93715e-08
-3.47671e-07
7.4651e-08
6.50383e-07
-3.08988e-08
2.45633e-06
-2.45668e-06
-4.47123e-10
-6.07075e-06
-3.13814e-07
-1.29264e-05
4.81559e-07
8.66685e-06
8.69676e-06
2.07002e-06
-2.28311e-05
-1.58512e-05
4.94686e-06
-1.88385e-06
-3.16175e-06
-4.41633e-06
2.00081e-07
8.30764e-07
3.17183e-06
9.58281e-06
1.68722e-05
-1.16295e-05
1.24244e-05
0.00381413
-0.00313943
-0.010252
0.00651515
0.00877142
0.00468082
0.0158311
0.00427565
0.00701547
0.0170929
0.00605458
0.0103276
0.00848026
0.00573812
-0.0124005
0.003985
-0.000518805
-0.00148488
0.0143227
-0.00444915
0.00729369
-1.33686e-07
-0.00729442
0.0044495
-0.014322
-0.00573783
0.0124008
-0.0103268
-0.00847974
-0.00605406
-0.0170926
-0.00701483
-0.00427546
0.00958812
0.0103562
0.0102522
-0.00877121
-0.00468072
-0.00651529
-0.0171773
-0.00762735
-0.0100166
-0.0137813
-0.00597524
0.00942781
-0.0120074
-0.00142277
0.0175502
-0.0175502
0.0120074
-0.00942782
0.00597479
0.0137804
0.0100168
0.0110502
0.007627
0.0171767
0.0192732
0.0190484
-0.00330415
0.0174477
0.00657746
0.00725024
0.00541046
0.000211442
1.01678e-06
-0.000211039
-9.70462e-08
0.00670437
-0.00670416
0.000460757
-0.00541052
-0.00725021
-0.00657772
-0.0174479
-0.019049
-0.0192726
-0.0160506
-0.0162651
-0.0174744
-0.0160766
-0.0164049
-0.0190549
-0.0185509
-0.0166711
-0.0057622
0.00151227
0.000234187
0.00729527
-0.00580948
0.00318732
-0.0021667
0.0011429
-0.000677568
0.000344279
-0.000178176
8.83165e-05
-3.96828e-05
1.95745e-05
-7.51689e-06
3.78847e-06
-1.22306e-06
-1.07848e-06
-9.1989e-07
-7.88879e-07
-1.41797e-06
-1.50751e-06
-1.13524e-08
2.35776e-06
-6.5051e-07
-7.48016e-08
3.47739e-07
-5.14417e-07
4.83237e-08
-1.99902e-07
-8.31091e-07
-3.16981e-06
-9.58282e-06
-1.68048e-05
1.16324e-05
-1.23851e-05
-0.00381408
0.00313943
0.00100189
0.00271713
-0.000501608
0.00639552
-0.00639545
-0.00271719
-0.00100172
0.000501723
0.00191682
-0.0103563
-0.00958764
0.00879541
-0.0113911
-0.00318094
0.000182728
0.00121172
-0.00237232
0.00238588
0.00304539
-3.36608e-08
-0.00304514
0.00318113
-0.00398489
0.00738602
0.0005183
0.00829673
-0.00829746
-0.00738658
-2.96147e-07
0.00501721
0.00539258
-0.00539298
0.000795927
-0.00501739
0.000232588
2.30908e-07
0.00610791
0.000886976
-0.00659995
0.00192815
-4.7456e-07
-6.27176e-07
-5.19353e-08
0.00652595
-0.00524398
-0.0174125
0.00350105
-0.0141878
0.01534
-0.0114203
0.008288
-0.00828829
-0.000739464
-0.00554359
-0.000440543
0.00372325
-0.00218917
-0.000122688
0.00128903
-0.000717188
-3.54797e-05
0.000373263
-0.000198141
-9.78527e-06
9.13607e-05
-4.69844e-05
-2.25228e-06
1.91275e-05
-9.72905e-06
-3.57144e-07
3.46458e-06
-1.77634e-06
5.15382e-09
5.50042e-07
1.43577e-07
2.66353e-07
-2.66443e-07
1.02298e-08
3.01347e-08
-7.80665e-08
-8.65385e-08
9.59484e-11
5.12391e-08
-5.12087e-08
-7.20053e-08
3.28674e-11
6.21833e-08
-6.22725e-08
-5.91381e-08
3.51138e-11
1.65731e-07
-1.65811e-07
2.4639e-08
8.83745e-12
-2.38442e-08
2.39183e-08
-1.60546e-08
9.92297e-08
6.33823e-08
4.52178e-08
1.64968e-08
1.01294e-07
3.34295e-08
-1.01806e-07
-2.52258e-09
1.181e-07
-9.48327e-08
2.15433e-07
5.43552e-08
5.66351e-08
9.49117e-09
9.7746e-08
1.38357e-08
-7.81521e-08
-3.06538e-09
1.356e-08
-7.18336e-08
2.58773e-07
-2.01118e-08
-3.67585e-08
-5.30552e-07
-2.49815e-06
-1.06339e-05
-3.82876e-05
-0.000110453
-0.000239739
-0.000468989
-0.000144382
0.00733592
0.00619898
0.0059008
0.00822976
-0.00653402
0.00371646
-0.00248881
0.00133461
-0.000776307
0.000402013
-0.000203756
0.000103085
-4.551e-05
2.28313e-05
-8.69957e-06
4.41605e-06
-3.45878e-07
4.37184e-06
-5.21318e-06
6.07109e-06
-1.37567e-05
4.1754e-10
1.37554e-05
-3.19012e-05
2.7763e-05
-2.26998e-05
4.45319e-05
-6.29953e-05
2.69144e-06
-0.000102379
9.87748e-06
4.55011e-05
-8.56094e-06
2.68069e-05
3.19075e-05
1.00225e-05
-7.93847e-05
-8.78052e-05
3.52528e-05
-9.03451e-06
-1.76454e-05
2.04506e-06
5.89755e-06
-3.41183e-06
3.36457e-07
7.88794e-07
-4.00664e-07
-2.79838e-07
3.06278e-09
-2.58908e-07
-3.33561e-08
-1.01222e-07
-1.63866e-08
-4.50915e-08
-6.33773e-08
-9.9326e-08
1.59193e-08
-2.61319e-08
-2.45955e-08
5.0704e-08
-4.18906e-08
-1.18039e-07
4.34197e-09
2.69216e-09
9.48066e-08
1.01894e-07
7.18158e-08
-1.35265e-08
-7.7882e-08
5.90648e-08
4.39553e-11
2.42918e-11
3.58616e-10
1.73435e-09
5.50151e-09
1.55839e-08
3.66971e-08
3.38577e-08
2.52501e-08
-1.37865e-07
1.75864e-07
0.00439596
0.000135713
-0.00692564
0.00142496
-0.015831
-0.00673928
0.011391
-0.000182737
-0.00121157
-0.000796115
7.9858e-05
0.000962885
0.000136742
0.000570453
-0.00207321
-0.00202274
0.00789875
0.00930342
-0.0114762
-3.44597e-05
0.00747629
-0.00630789
0.00953548
-0.000233409
-0.00356594
-0.011776
-0.0118129
-0.0116141
-0.00681502
-0.00648414
-0.00108952
-0.00208679
-0.00123179
-0.00342944
-0.00129664
-0.000674659
-0.000378698
-0.000131073
-0.000216536
3.39599e-05
-4.0011e-05
0.000272187
-0.00541084
-0.00473202
0.00280805
0.00251573
0.000703038
-0.00425017
-0.000200784
-0.00025245
-0.00238572
0.00237263
-0.00191673
1.79698e-05
0.00594594
-0.000233041
-0.00186575
0.0014851
-0.00499884
-0.0012046
-0.0047343
-8.75422e-08
1.95706e-07
1.71365e-07
2.77654e-07
2.93612e-09
-1.36306e-08
-7.55638e-09
-4.59533e-09
-1.50498e-09
-6.00044e-11
-3.97131e-11
-6.9267e-08
6.91932e-08
1.07479e-07
-1.78513e-07
-1.54534e-06
-8.48994e-06
-3.71158e-05
-6.20129e-05
2.58601e-05
-0.000443415
-0.000130031
-3.22862e-05
-1.51065e-05
1.13158e-05
2.29221e-05
-0.000159674
-0.000145784
7.93833e-05
7.02166e-05
3.35246e-05
-0.000123496
0.000270671
0.000111153
-0.000481778
0.000895173
0.00030737
-0.00157886
-0.00031294
-0.00181232
0.00101712
0.000323721
-0.00199898
0.00321249
0.000729897
0.000138695
-0.000139912
-7.36005e-05
-0.000136124
-0.000562263
0.000308046
0.000117364
-0.000615055
0.00113738
-0.000113957
0.000147822
-0.0013426
-0.00359798
-0.000786422
-0.00105309
0.00729761
-0.00879516
0.0281742
-0.000819668
0.00762093
-0.00188785
-0.00771212
-0.00463856
-0.0012803
-0.00219358
-0.000244928
0.000228458
-0.00135925
-0.000459682
-0.00044939
-0.000129146
-3.15472e-05
-6.36765e-06
-6.66516e-06
-2.94924e-06
3.78152e-06
6.76262e-06
-3.52571e-05
-3.19174e-05
1.76468e-05
1.58495e-05
8.56043e-06
-2.68092e-05
-1.00226e-05
-7.93275e-06
-2.73747e-05
-4.12887e-05
6.94556e-06
3.54103e-05
8.78e-05
-8.56726e-06
-1.26849e-05
0.000198132
7.82837e-06
-0.000373327
3.55352e-05
0.000717184
1.54933e-05
-0.00128921
0.000122874
0.00218908
1.60364e-05
-0.00372347
0.000440701
0.00554361
-8.31792e-05
-0.00887056
0.00176608
0.0125904
0.00291095
0.000765808
-0.000428781
0.000428726
-0.0125908
-0.00176556
0.00887042
-0.000765999
0.0114203
-0.00652597
-0.0153405
-1.44433e-07
0.0141869
-0.00350115
0.0174135
0.00576272
0.00524407
0.00120444
0.00499902
0.00186542
-0.00192828
-0.00610818
0.00660087
-0.000886928
0.00673951
-0.00594553
-3.9875e-07
-2.12007e-08
-1.956e-08
4.40717e-10
3.149e-09
7.07333e-09
0.000739813
-0.00575096
0.00380871
-0.00223478
0.00138937
-0.00138942
-2.01389e-05
0.000717308
1.25963e-05
-0.000420076
-4.57324e-06
0.000193207
3.13436e-06
-0.000107609
-1.03556e-06
4.43983e-05
6.18227e-07
-2.38612e-05
-6.73566e-08
8.85972e-06
1.20989e-07
-4.70771e-06
1.33215e-07
1.55875e-06
6.09811e-08
-8.5314e-07
-1.46111e-10
8.52815e-07
-1.43681e-07
-5.50099e-07
-5.31834e-09
1.77614e-06
2.11925e-07
-3.4649e-06
3.5721e-07
9.72888e-06
8.80868e-07
-1.91304e-05
2.2521e-06
4.69817e-05
2.9472e-06
-9.13734e-05
9.79393e-06
-3.13321e-06
0.000107599
-3.0631e-09
-4.44047e-05
2.38606e-05
-8.86089e-06
4.70721e-06
-4.07428e-10
-1.55906e-06
-6.11014e-08
-7.77695e-08
-6.1507e-07
-1.21183e-07
-1.02844e-06
-5.26778e-06
-2.24014e-05
-7.76011e-05
-0.000207469
-0.000396409
-0.00056468
0.000564693
0.00473415
0.00648432
0.00108941
0.000395976
0.00575085
4.49036e-05
-0.00380885
-0.000112696
0.0022346
3.60563e-05
0.000120254
6.57462e-08
0.000112898
1.28663e-08
-6.18331e-09
2.02068e-05
-0.000717338
0.000420067
-0.000193228
4.57311e-06
-8.70149e-09
-8.77975e-09
-2.19532e-09
1.03504e-06
-5.82194e-10
6.79661e-08
-1.04534e-09
-1.61922e-10
-1.33137e-07
-9.44576e-11
7.02788e-12
7.81761e-08
-3.00809e-08
2.52349e-08
-3.71909e-08
3.72294e-08
-2.51825e-08
9.56439e-08
-1.38357e-08
5.05902e-08
-9.34719e-08
-8.91185e-09
-8.78295e-09
-8.67078e-08
2.58737e-07
2.91542e-08
9.75978e-08
2.15584e-08
4.19492e-08
2.05758e-07
5.22528e-08
-1.25824e-08
-2.45326e-08
-6.10614e-09
-2.94221e-12
-4.20078e-12
6.1073e-09
-9.57171e-08
-5.06063e-08
1.37211e-08
-4.07597e-08
8.85826e-09
8.65799e-08
8.72911e-09
-2.43218e-08
3.17586e-09
7.82014e-08
-1.37802e-08
-9.7664e-08
-9.49741e-09
-5.65922e-08
2.54476e-08
2.4492e-08
-2.55995e-12
2.39888e-08
4.06765e-08
5.27893e-08
1.38653e-08
5.55227e-08
-2.54247e-08
-1.35794e-08
7.6538e-12
-1.3884e-08
-2.39834e-08
8.66787e-08
-5.29563e-08
7.75743e-08
-1.51018e-10
-8.26807e-11
-2.4277e-10
3.03979e-09
-1.22771e-08
3.37727e-08
-0.000261154
-4.47735e-05
0.000261238
0.000469239
8.30218e-05
-0.0072953
0.000144765
0.00541085
-0.000729973
-0.00280829
0.000312733
0.00157882
-0.000307299
-0.000895304
-0.00133453
0.000133302
0.000745815
-0.000971771
3.19518e-05
-0.00133708
0.00238083
-0.00298035
4.44702e-05
-0.00381179
0.000314244
0.00248857
-0.00371612
-0.00251636
0.00425025
-0.000702817
0.00653368
0.000233777
0.00630804
-0.00747578
3.46028e-05
-0.00953599
-0.00822946
-0.00590133
0.000200635
0.00473151
-0.00619863
-0.00733653
0.00105334
-0.000962871
-0.000136828
-0.0253162
-0.00057013
-0.00090984
0.00207291
-0.0277705
0.00202287
-0.00930343
-0.0078991
0.00463816
4.2845e-07
0.000354063
0.000600531
0.0127179
2.462e-08
0.0081048
-0.00810464
0.000191329
-0.00491146
-4.43228e-05
0.00298057
-0.0023808
0.00381126
-0.000314279
0.00133688
-3.20047e-05
0.000971833
-0.000745816
-0.000133367
0.000399668
-1.10536e-05
0.000267176
-0.000197183
-4.02626e-05
-0.000133769
-3.32323e-05
-6.89387e-06
-1.10589e-06
-9.49136e-07
-1.05841e-06
-3.51851e-07
1.05579e-06
1.71734e-06
-6.67552e-06
-5.89977e-06
3.41172e-06
3.16134e-06
1.88312e-06
-4.94789e-06
-2.04575e-06
-1.91937e-06
-4.08456e-07
-3.36254e-07
1.05291e-07
4.18826e-07
3.82662e-07
-4.95228e-07
2.01636e-08
1.05988e-08
3.00839e-07
4.55562e-07
2.35777e-08
2.09961e-07
-5.14686e-07
4.37986e-07
1.61385e-06
6.27021e-06
2.10127e-05
5.87356e-05
0.000130342
-1.25866e-05
-0.000694513
-0.000427579
-0.000145275
-0.000215481
1.43351e-05
3.57688e-05
0.000100209
-0.00173612
0.00195947
2.01223e-08
0.00105598
-0.00105593
2.15797e-05
0.000579844
-5.9996e-10
0.000288817
-0.00028881
6.18171e-06
-0.000128437
-2.70032e-06
6.29937e-05
-4.45366e-05
0.000102362
-9.87641e-06
8.02164e-06
-6.11469e-05
-4.28799e-05
-1.08141e-05
-1.51431e-05
2.90804e-06
2.74452e-06
-2.77676e-05
-4.82917e-07
1.29268e-05
-8.66843e-06
2.26967e-05
-2.06998e-06
8.74225e-07
-3.07622e-06
-2.25218e-06
-3.18821e-07
-4.34388e-07
2.64246e-07
1.70062e-08
9.2154e-09
6.43717e-09
1.69742e-07
-4.91606e-08
5.57717e-08
-2.0318e-10
-5.48831e-08
4.89121e-08
-1.69565e-07
-2.61081e-08
-4.09189e-08
-2.56495e-10
-2.95021e-10
6.17634e-07
3.11961e-07
4.79035e-07
3.99537e-07
1.98725e-06
3.88653e-06
-2.86023e-07
1.78416e-06
9.03521e-06
1.96332e-05
-1.77159e-06
-3.05022e-06
-6.17832e-07
3.04799e-06
1.26824e-05
4.35389e-05
0.00011048
0.000239823
-1.60111e-05
-0.00318759
0.000256107
0.0019988
-0.000323774
-0.00101713
0.000136146
0.000481748
-0.000111142
-0.000270732
-0.000401949
4.02737e-05
0.000197184
-0.000267163
1.1044e-05
-0.000399714
0.000512048
-2.15715e-05
-0.000579813
-3.57478e-05
-6.64664e-09
3.62695e-08
-2.31998e-07
0.000238788
-0.000238458
-0.000353826
-0.000600408
0.011476
-0.0127178
-0.000303819
-7.98641e-05
-0.000138651
0.000252611
0.000140064
-1.507e-08
6.41836e-05
-0.000120216
-3.59931e-05
-4.35313e-05
-1.2574e-05
2.31604e-05
1.34713e-08
1.35152e-09
7.17238e-10
-1.71232e-10
-7.21069e-11
-1.56916e-11
-2.48578e-11
3.6678e-08
5.30437e-07
2.49791e-06
1.0632e-05
3.82809e-05
-7.84818e-06
-0.000344268
3.49706e-05
0.000159653
-3.54127e-05
0.000145743
4.12776e-05
0.000123483
-3.35241e-05
-7.02289e-05
-0.000103081
0.000203711
-2.10212e-05
-2.29234e-05
-1.1347e-05
3.70837e-05
0.000130969
0.000378452
0.000207518
7.75989e-05
2.24056e-05
5.26875e-06
8.48491e-06
1.54418e-06
1.02857e-06
1.38184e-07
1.77977e-07
-1.07694e-07
-1.08038e-08
-3.00971e-07
1.2229e-06
2.86004e-07
1.07848e-06
-4.18828e-07
-2.87269e-07
5.14772e-07
2.01281e-08
4.08461e-07
1.91954e-06
7.93267e-06
2.73809e-05
7.36258e-05
-6.41551e-05
-2.31695e-05
-0.000117384
-0.00034135
-0.000308038