/*--------------------------------*- C++ -*----------------------------------*\
| =========                 |                                                 |
| \\      /  F ield         | OpenFOAM: The Open Source CFD Toolbox           |
|  \\    /   O peration     | Version:  2306                                  |
|   \\  /    A nd           | Website:  www.openfoam.com                      |
|    \\/     M anipulation  |                                                 |
\*---------------------------------------------------------------------------*/
FoamFile
{
    version     2.0;
    format      ascii;
    arch        "LSB;label=32;scalar=64";
    class       volScalarField;
    location    "0.4";
    object      gradTz;
}
// * * * * * * * * * * * * * * * * * * * * * * * * * * * * * * * * * * * * * //

dimensions      [0 -1 0 1 0 0 0];

internalField   nonuniform List<scalar> 
2658
(
-0.0595008
-0.0549044
-0.0267349
-0.0232167
-0.0330676
-0.0335462
-0.0232291
-0.022707
-0.0232015
-0.0334871
-0.0417952
-0.0390215
-0.0575897
-0.0557459
-0.0551217
-0.0564406
-0.0569574
-0.0563472
-0.0548995
-0.0549463
-0.0565614
-0.0510245
-0.0572889
-0.0393407
-0.0636432
-0.0566866
-0.0521229
-0.0579604
-0.0610407
-0.0529674
-0.06104
-0.0521227
-0.0566858
-0.0572878
-0.0636427
-0.0393396
-0.0451779
-0.0732867
-0.0510238
-0.0565625
-0.0549472
-0.0548994
-0.0563464
-0.0734995
-0.0400656
-0.0396864
-0.0417952
-0.0735471
-0.0564413
-0.0551218
-0.055745
-0.0575905
-0.0517787
-0.0765912
-0.0576468
-0.0551429
-0.0735159
-0.0398213
-0.0400809
-0.0563889
-0.0735168
-0.0551434
-0.0576469
-0.076591
-0.043258
-0.0390962
-0.0417086
-0.0333106
-0.0330122
-0.0330114
-0.0233267
-0.022589
-0.0148537
-0.0147403
-0.00956142
-0.0146692
-0.0147019
-0.00954659
-0.00917559
-0.00892013
-0.0146922
-0.0148457
-0.0224767
-0.0232984
-0.022135
-0.00914574
-0.00317997
-0.00093119
-0.000232546
-5.02047e-05
-9.47949e-06
-1.90669e-06
-7.58713e-07
-7.10735e-07
-5.40162e-07
-9.14155e-07
-5.28591e-07
-7.06179e-07
-5.23236e-07
-5.11537e-07
-6.78495e-07
-5.11692e-07
-8.02468e-07
-5.9306e-07
-5.12919e-07
-7.75323e-07
-6.31842e-07
-1.72839e-06
-6.06173e-07
-6.42019e-07
-5.66581e-07
-4.76808e-07
-5.92832e-07
-4.76807e-07
-5.66596e-07
-6.42089e-07
-5.13256e-07
-7.75413e-07
-8.02523e-07
-5.93298e-07
-5.11484e-07
-6.78571e-07
-5.1156e-07
-5.23152e-07
-7.4199e-07
-7.44617e-07
-7.10711e-07
-9.14234e-07
-5.28594e-07
-5.4028e-07
-7.24291e-07
-5.45786e-07
-6.49466e-07
-5.51152e-07
-7.06582e-07
-6.55403e-07
-6.85882e-07
-1.12715e-06
-8.08591e-07
-8.08614e-07
-6.85706e-07
-6.55364e-07
-6.18571e-07
-5.86802e-07
-7.1938e-07
-5.86663e-07
-7.79243e-07
-1.0323e-06
-5.68275e-07
-5.7087e-07
-4.82795e-07
-7.79417e-07
-1.02886e-06
-4.64047e-07
-7.56433e-07
-7.70267e-07
-7.19324e-07
-7.29615e-07
-6.2721e-07
-7.33872e-07
-7.42961e-07
-6.20091e-07
-7.40239e-07
-6.97888e-07
-5.88497e-07
-6.82138e-07
-6.53417e-07
-7.52115e-07
-1.57102e-06
-2.39845e-06
-6.75143e-06
-1.71231e-05
-3.99589e-05
-9.06774e-05
-0.000197803
-0.000416979
-0.000843696
-0.00164588
-0.00306978
-0.00550856
-0.00940154
-0.0153855
-0.0239213
-0.0348436
-0.0335057
-0.0327923
-0.0331658
-0.0334865
-0.0330671
-0.0232162
-0.0335465
-0.0417078
-0.0390964
-0.043258
-0.0390215
-0.0618366
-0.0221349
-0.00914567
-0.00317994
-0.00093117
-0.000232538
-5.02023e-05
-9.47907e-06
-1.90667e-06
-7.58786e-07
-6.57589e-07
-7.65457e-07
-1.83583e-06
-7.69316e-07
-7.69343e-07
-7.6549e-07
-6.57599e-07
-1.83585e-06
-6.74946e-07
-7.44774e-07
-7.42113e-07
-8.90142e-07
-6.78401e-07
-7.20839e-07
-6.27036e-07
-6.74512e-07
-7.72589e-07
-1.96927e-06
-1.8699e-06
-2.11792e-06
-1.86972e-06
-7.20827e-07
-6.31816e-07
-7.29204e-07
-1.72818e-06
-7.21429e-07
-7.21471e-07
-7.29238e-07
-8.11195e-07
-7.30392e-07
-7.64932e-07
-7.64961e-07
-1.78016e-06
-7.30418e-07
-6.52823e-07
-4.59156e-07
-4.58837e-07
-4.2705e-07
-5.27116e-07
-4.51817e-07
-4.73705e-07
-9.87289e-07
-1.89485e-06
-1.26775e-06
-1.26988e-06
-6.83567e-07
-5.00873e-07
-6.59684e-07
-1.20239e-06
-3.52482e-06
-7.70395e-06
-7.70404e-06
-7.31979e-06
-1.79174e-05
-1.67719e-05
-4.17805e-05
-9.43082e-05
-8.58309e-05
-0.000204907
-0.000431724
-0.000381683
-0.000872144
-0.00170115
-0.00145477
-0.00317309
-0.00568345
-0.00468464
-0.00972079
-0.0158639
-0.0125465
-0.0245809
-0.0371282
-0.028943
-0.0496246
-0.0369911
-0.0505408
-0.0505405
-0.0579593
-0.0612392
-0.0511226
-0.0467688
-0.0703345
-0.0440991
-0.0440993
-0.0445196
-0.0702306
-0.0450262
-0.0450264
-0.0434959
-0.0703586
-0.0570249
-0.0570247
-0.0737372
-0.107297
-0.0737374
-0.0750667
-0.106154
-0.0751558
-0.0876716
-0.0693573
-0.0674396
-0.0548262
-0.0631422
-0.0816175
-0.0725182
-0.0434957
-0.0419505
-0.07037
-0.0551714
-0.0750957
-0.106163
-0.0752031
-0.0828566
-0.0768857
-0.0776124
-0.0768848
-0.0703696
-0.0548261
-0.0674401
-0.0751534
-0.106154
-0.075066
-0.0631431
-0.0816172
-0.0828551
-0.075206
-0.106161
-0.0750965
-0.0551711
-0.0630979
-0.074205
-0.107376
-0.0738003
-0.0572982
-0.0704456
-0.0433543
-0.0570562
-0.057463
-0.0587452
-0.0231888
-0.00963831
-0.00335251
-0.000979405
-0.000243532
-5.22371e-05
-9.76898e-06
-8.42097e-06
-6.7674e-06
-6.82732e-06
-6.83422e-06
-7.00427e-06
-1.6673e-05
-3.98677e-05
-8.75238e-05
-0.000195502
-0.000401052
-0.000828716
-0.00157933
-0.00300293
-0.00527739
-0.00917546
-0.0147014
-0.0232984
-0.023201
-0.022707
-0.0232287
-0.0225895
-0.0146748
-0.00968728
-0.014675
-0.00897039
-0.00915984
-0.0089931
-0.00520787
-0.00529694
-0.0032479
-0.00294905
-0.0032396
-0.00527768
-0.00558665
-0.00526803
-0.00522036
-0.00327779
-0.0029458
-0.00293719
-0.00524581
-0.00556782
-0.00899038
-0.00963494
-0.0145338
-0.0227129
-0.0232601
-0.033166
-0.0333563
-0.0396869
-0.0735477
-0.0630985
-0.057056
-0.0433541
-0.058395
-0.0351396
-0.0240255
-0.022811
-0.00952544
-0.00331497
-0.000969202
-0.000241304
-5.1884e-05
-9.78041e-06
-1.96925e-06
-7.72497e-07
-6.74303e-07
-1.78017e-06
-6.27032e-07
-6.78405e-07
-8.90186e-07
-1.85608e-06
-2.47079e-06
-2.50679e-06
-2.54637e-06
-2.53273e-06
-2.24111e-06
-1.0864e-06
-2.87698e-06
-7.31148e-06
-8.8879e-06
-1.74616e-05
-1.62379e-05
-6.86665e-06
-8.58581e-06
-1.04394e-05
-2.00163e-06
-1.97633e-06
-1.91131e-06
-1.41291e-06
-2.21936e-06
-1.13943e-05
-9.1059e-06
-4.1443e-06
-1.01579e-05
-5.53473e-05
-5.12721e-05
-5.92546e-05
-0.000271887
-0.000246434
-0.00012429
-2.43998e-05
-2.31214e-05
-1.62883e-05
-1.64107e-05
-3.87714e-05
-3.86883e-05
-2.00924e-05
-1.66213e-05
-8.64919e-06
-1.02674e-05
-5.53992e-05
-0.000262819
-0.00026249
-0.0010669
-0.00101561
-0.00108025
-0.00366503
-0.00356478
-0.00203948
-0.000544177
-0.000522555
-0.000396577
-0.000395836
-0.000812068
-0.000807806
-0.000456626
-0.000399676
-0.000190189
-0.000102805
-8.71332e-05
-4.71602e-05
-8.6169e-05
-0.000190993
-0.000101954
-8.61344e-05
-3.86752e-05
-1.98417e-05
-2.4288e-05
-2.38871e-05
-1.79161e-05
-6.94722e-06
-7.60113e-06
-2.93659e-06
-2.85267e-06
-9.70692e-07
-3.11544e-06
-4.16394e-06
-4.24488e-06
-3.50778e-06
-4.06839e-06
-4.12739e-06
-1.89241e-06
-4.3901e-06
-1.51408e-06
-2.08111e-06
-1.11733e-05
-9.37015e-06
-2.54272e-05
-2.33367e-05
-5.63552e-05
-0.00026613
-0.00108021
-0.00107034
-0.00371177
-0.00369112
-0.0107663
-0.0105538
-0.010475
-0.0247564
-0.0262018
-0.0172417
-0.0064825
-0.00633324
-0.00524556
-0.0052201
-0.00899016
-0.00891989
-0.00558659
-0.00526783
-0.00292767
-0.00173786
-0.00157499
-0.000933987
-0.00156131
-0.00294567
-0.00173087
-0.0015662
-0.000809947
-0.000454093
-0.00053061
-0.000121815
-0.000119239
-9.43016e-05
-3.8413e-05
-4.17769e-05
-1.67708e-05
-1.72862e-05
-4.15511e-05
-9.40475e-05
-0.000201202
-0.000201202
-0.000183834
-0.000424985
-0.000388578
-0.000850731
-0.000754323
-0.00166175
-0.00147683
-0.00307971
-0.00263835
-0.00551408
-0.00473756
-0.00938523
-0.0077368
-0.0152398
-0.0126185
-0.0237533
-0.0187189
-0.0339305
-0.0278096
-0.0499746
-0.0438972
-0.0499743
-0.0369909
-0.0496231
-0.0289424
-0.0371278
-0.0189491
-0.0245803
-0.0125462
-0.0158636
-0.00783973
-0.00972056
-0.00468458
-0.00568341
-0.00266649
-0.00317301
-0.00145471
-0.00170112
-0.000759852
-0.000872097
-0.000381663
-0.00043171
-0.000184116
-0.000204895
-8.58253e-05
-8.77146e-05
-0.00013485
-2.84633e-05
-5.68328e-06
-1.42925e-06
-1.05376e-06
-2.73566e-06
-1.25631e-05
-6.05314e-05
-0.000269778
-0.00105814
-0.00355088
-0.00998225
-0.0230015
-0.0412428
-0.0569641
-0.0536331
-0.0536329
-0.046244
-0.0582295
-0.0375478
-0.0262317
-0.0544014
-0.0397148
-0.0406465
-0.0332776
-0.033901
-0.0332525
-0.0278093
-0.03393
-0.0187186
-0.0237532
-0.0218318
-0.0231127
-0.00966779
-0.00773654
-0.00938517
-0.0152392
-0.0126186
-0.0158619
-0.00605051
-0.0047375
-0.00551389
-0.00263829
-0.00307974
-0.00308629
-0.00337017
-0.000986737
-0.000246153
-0.000183826
-0.000424962
-0.00085074
-0.00166169
-0.00147677
-0.00192415
-0.000517226
-0.000251476
-5.3855e-05
-1.018e-05
-1.01506e-05
-7.31965e-06
-1.85327e-05
-8.98708e-06
-1.85333e-05
-1.7287e-05
-4.15523e-05
-3.88926e-05
-9.40546e-05
-8.77177e-05
-0.000119241
-5.31686e-05
-3.88897e-05
-4.63501e-05
-2.38875e-05
-4.1641e-06
-2.85305e-06
-2.93695e-06
-7.60194e-06
-3.11577e-06
-3.52497e-06
-1.26777e-06
-1.20244e-06
-1.79994e-06
-6.59582e-07
-5.00866e-07
-6.83536e-07
-7.52176e-07
-1.27015e-06
-7.37501e-07
-5.43678e-07
-6.21726e-07
-4.51671e-07
-4.58697e-07
-5.27058e-07
-4.26905e-07
-5.70493e-07
-4.74801e-07
-4.77542e-07
-4.74851e-07
-4.3815e-07
-7.06329e-07
-5.70519e-07
-6.52856e-07
-6.21795e-07
-6.06132e-07
-5.43798e-07
-7.374e-07
-6.74449e-07
-4.86735e-07
-4.5766e-07
-5.90497e-07
-5.76681e-07
-5.06434e-07
-6.42355e-07
-6.64009e-07
-8.09136e-07
-8.90551e-07
-1.71982e-06
-4.85808e-07
-8.5591e-07
-2.18973e-06
-2.19876e-06
-8.53009e-07
-1.03666e-05
-5.44816e-05
-0.000253391
-0.00101892
-0.00101463
-0.00348513
-0.0100466
-0.0240652
-0.054262
-0.0511784
-0.0896314
-0.0511224
-0.0612405
-0.0906647
-0.0748692
-0.0748674
-0.090665
-0.0953401
-0.0526671
-0.0761428
-0.0681926
-0.0702991
-0.0422521
-0.0556848
-0.0624876
-0.0756345
-0.106565
-0.0761077
-0.088516
-0.0671666
-0.0815581
-0.0773083
-0.0783181
-0.0794057
-0.0843982
-0.102045
-0.0794083
-0.0953405
-0.0761443
-0.0526667
-0.0449847
-0.0702989
-0.0556844
-0.042252
-0.0428432
-0.0704458
-0.0572994
-0.0737993
-0.107376
-0.0742061
-0.0814588
-0.0779379
-0.078318
-0.0789195
-0.0742476
-0.0449842
-0.0612541
-0.0713007
-0.0808834
-0.0779396
-0.0770557
-0.0814585
-0.0761988
-0.0725186
-0.0419508
-0.058395
-0.0351395
-0.033356
-0.0367036
-0.0262961
-0.0108386
-0.0169841
-0.0146601
-0.0145332
-0.0227129
-0.0224762
-0.0148456
-0.0146919
-0.00963454
-0.0171159
-0.0109382
-0.00374134
-0.0063772
-0.00198603
-0.00052536
-0.000119089
-0.000118325
-0.000190507
-0.000223299
-0.000128859
-8.54549e-05
-4.76397e-05
-8.94184e-05
-0.000196463
-0.000225923
-0.000405349
-0.000391948
-0.000192648
-0.000224182
-0.000814896
-0.000927254
-0.00158862
-0.00154788
-0.000923312
-0.00294898
-0.00324784
-0.00529693
-0.00520775
-0.0032395
-0.0089929
-0.0095613
-0.0147404
-0.014669
-0.00954651
-0.0181597
-0.0266339
-0.0549334
-0.0541177
-0.0569588
-0.0364757
-0.0402788
-0.0398339
-0.0265466
-0.0267344
-0.011014
-0.00377774
-0.00109513
-0.000272026
-5.86221e-05
-5.1986e-05
-0.000122665
-0.000104028
-8.9145e-05
-4.90737e-05
-8.91539e-05
-0.000193853
-0.000231018
-0.000403968
-0.000403943
-0.000193856
-0.000242729
-5.25948e-05
-1.01317e-05
-4.42304e-06
-3.56204e-06
-3.85224e-06
-2.95948e-06
-1.51897e-06
-2.96012e-06
-7.56658e-06
-9.41535e-06
-1.74943e-05
-1.74928e-05
-7.56706e-06
-4.82391e-06
-2.56099e-06
-1.1269e-06
-1.12698e-06
-6.80781e-07
-9.7185e-07
-2.56135e-06
-2.87692e-06
-1.08624e-06
-2.24128e-06
-6.86667e-06
-8.8886e-06
-1.62396e-05
-1.74619e-05
-7.31252e-06
-3.85243e-06
-4.42303e-06
-4.24493e-06
-9.76931e-06
-6.94755e-06
-6.75194e-06
-8.42129e-06
-1.62883e-05
-1.98414e-05
-3.87724e-05
-4.71642e-05
-8.71421e-05
-0.000102812
-0.000190196
-0.000195511
-0.0002242
-0.000391974
-0.000405372
-0.000225948
-0.000192662
-8.54659e-05
-8.94205e-05
-4.76437e-05
-3.94384e-05
-4.69168e-05
-8.75321e-05
-3.98692e-05
-3.86905e-05
-1.6622e-05
-2.00923e-05
-1.66739e-05
-8.58607e-06
-7.0042e-06
-6.83437e-06
-8.64968e-06
-1.64115e-05
-6.82721e-06
-6.76754e-06
-2.47078e-06
-3.50725e-06
-2.50666e-06
-9.62082e-07
-2.54639e-06
-3.56174e-06
-2.53275e-06
-8.81483e-07
-7.33868e-07
-7.42908e-07
-1.89231e-06
-4.12763e-06
-4.06851e-06
-4.14479e-06
-2.21958e-06
-1.42933e-06
-5.68353e-06
-2.84653e-05
-1.13947e-05
-5.92656e-05
-0.00013486
-0.00056795
-0.000271924
-0.00108036
-0.00206559
-0.00206551
-0.000567913
-0.000388562
-0.00635387
-0.00635412
-0.00366527
-0.0104754
-0.0162204
-0.0162196
-0.0330576
-0.0330585
-0.0247571
-0.0462453
-0.0582368
-0.0375487
-0.0348453
-0.0231442
-0.0335059
-0.0332779
-0.0400658
-0.0402789
-0.0574633
-0.0587456
-0.023189
-0.00963843
-0.00335256
-0.000979428
-0.000243539
-5.22387e-05
-3.84155e-05
-3.9962e-05
-4.64738e-05
-8.61364e-05
-0.000101959
-0.000190999
-0.000226229
-0.000399704
-0.00045664
-0.000807838
-0.000828743
-0.000923373
-0.00154794
-0.00158864
-0.000927298
-0.000814932
-0.000829934
-0.000459411
-0.000816714
-0.000945348
-0.00158271
-0.00158268
-0.000816725
-0.000459394
-0.000829891
-0.000532496
-0.00027198
-5.92154e-05
-1.17373e-05
-2.33264e-06
-4.8248e-06
-2.08108e-06
-7.55805e-07
-4.64624e-07
-6.33091e-07
-7.0643e-07
-5.50892e-07
-6.49332e-07
-8.90537e-07
-5.45592e-07
-7.2438e-07
-6.2698e-07
-7.29538e-07
-1.71964e-06
-7.19229e-07
-7.70281e-07
-1.51378e-06
-2.00157e-06
-1.97616e-06
-1.91129e-06
-5.88445e-07
-6.97836e-07
-1.85616e-06
-7.40147e-07
-6.2008e-07
-8.61464e-07
-2.39863e-06
-9.70813e-07
-1.57101e-06
-6.82056e-07
-6.53373e-07
-1.4129e-06
-1.01589e-05
-9.10707e-06
-2.44033e-05
-1.71246e-05
-2.31238e-05
-3.86776e-05
-5.53544e-05
-5.12832e-05
-0.000124306
-9.06864e-05
-0.000197816
-0.000223313
-0.000396606
-0.000454111
-0.00080999
-0.000812099
-0.000934039
-0.00157506
-0.00173785
-0.00292782
-0.00300301
-0.0015794
-0.00198615
-0.00197509
-0.0015663
-0.00173096
-0.0015614
-0.000969215
-0.00024131
-5.18856e-05
-9.78058e-06
-2.42884e-05
-0.000121816
-0.000530615
-0.000517232
-0.00192417
-0.00198196
-0.00198195
-0.00625727
-0.00556758
-0.00895222
-0.00952857
-0.0164422
-0.0147983
-0.0226159
-0.0231436
-0.0169732
-0.00645291
-0.00204366
-0.000547608
-0.00012598
-2.52162e-05
-2.06151e-05
-4.03919e-05
-4.01819e-05
-4.01808e-05
-4.03958e-05
-2.06152e-05
-2.52166e-05
-0.000125983
-0.000104034
-0.00019648
-0.000122676
-2.49686e-05
-1.11751e-05
-5.86275e-05
-0.000272048
-0.000532518
-0.00056405
-0.000128874
-0.000119104
-0.000118337
-0.000190521
-0.000262518
-0.000246475
-0.000544249
-0.000417014
-0.000843737
-0.00092254
-0.00164599
-0.00306989
-0.00323869
-0.00550892
-0.00940181
-0.00952908
-0.0146607
-0.0147985
-0.0226164
-0.0239218
-0.0189495
-0.015386
-0.00783991
-0.0172428
-0.00648293
-0.00203967
-0.00101578
-0.00106704
-0.00369158
-0.00356541
-0.0107674
-0.0105553
-0.0262334
-0.0262014
-0.0544042
-0.0397152
-0.0451784
-0.0732889
-0.0671674
-0.076107
-0.106564
-0.0756352
-0.062488
-0.0735004
-0.0406475
-0.0364764
-0.0327932
-0.0228111
-0.00952554
-0.00331502
-0.00349039
-0.0100425
-0.0164423
-0.0158619
-0.00605055
-0.00625731
-0.00645296
-0.00331346
-0.000971035
-0.00204368
-0.000547614
-0.00174356
-0.00300194
-0.00294881
-0.0033032
-0.00527654
-0.00527649
-0.00294882
-0.00174351
-0.00300186
-0.0019991
-0.00212048
-0.00102211
-0.000564019
-0.000248453
-0.00678293
-0.00359397
-0.00639774
-0.00915966
-0.00897044
-0.00559634
-0.00950875
-0.0227691
-0.0574087
-0.0531458
-0.0445198
-0.057585
-0.0339011
-0.0332528
-0.0612547
-0.0467692
-0.0742471
-0.0713008
-0.0808831
-0.0815574
-0.0681947
-0.0885162
-0.0773087
-0.0770575
-0.0793446
-0.0618368
-0.0398212
-0.0366765
-0.0264636
-0.0171327
-0.0148536
-0.0366761
-0.0549045
-0.0595027
-0.0556507
-0.0541937
-0.0563891
-0.0570006
-0.0333103
-0.0109468
-0.00376256
-0.00109197
-0.00199913
-0.00109516
-0.00377767
-0.00639781
-0.00559643
-0.00678308
-0.00212055
-0.00108029
-0.000266159
-5.63628e-05
-1.04402e-05
-1.02678e-05
-5.54042e-05
-0.00026284
-0.00052262
-0.000395858
-0.00107044
-0.00371205
-0.00633379
-0.00895248
-0.0169849
-0.0171162
-0.00637768
-0.00374147
-0.0109386
-0.0108395
-0.0262973
-0.0541196
-0.0367034
-0.0266351
-0.0549339
-0.0398345
-0.0181599
-0.017133
-0.0110141
-0.0106805
-0.0265471
-0.00359441
-0.000525403
-0.000401079
-2.33393e-05
-2.54306e-05
-4.39042e-06
-9.37177e-06
-5.19959e-05
-0.000248503
-0.00102237
-0.0169732
-0.0106789
-0.00266659
-0.000759884
-0.000184129
-8.61729e-05
-2.49663e-05
-3.94364e-05
-4.69128e-05
-4.57388e-07
-4.8663e-07
-6.74432e-07
-6.42255e-07
-5.19071e-07
-5.06125e-07
-5.76454e-07
-5.90521e-07
-4.38306e-07
-8.09113e-07
-6.63933e-07
-1.12718e-06
-1.03003e-06
-6.80816e-07
-9.71936e-07
-6.18855e-07
-6.33037e-07
-0.00197487
-0.00293705
-0.00323856
-0.0232593
-0.042843
-0.0575848
-0.076196
-6.74798e-07
-4.35212e-07
-0.000754317
-0.000885217
-0.000216825
-0.00902895
-0.000922474
-0.00327764
-4.64699e-05
-0.000226218
-8.61516e-07
-9.62109e-07
-8.81487e-07
-0.0693571
-0.0876718
-0.0761542
-0.0768431
-0.0761547
-0.0517784
-0.0556515
1.51363e-06
2.08085e-06
1.1173e-05
8.88769e-06
6.86627e-06
7.31143e-06
1.74616e-05
1.62367e-05
8.58494e-06
7.00372e-06
2.53261e-06
8.81407e-07
7.29614e-07
6.27258e-07
7.33916e-07
7.4299e-07
6.20277e-07
7.40273e-07
6.98049e-07
5.88768e-07
6.82335e-07
6.53905e-07
7.52257e-07
9.70835e-07
1.27031e-06
6.83704e-07
5.00881e-07
7.37474e-07
6.59494e-07
4.35293e-07
6.59484e-07
5.00777e-07
6.83583e-07
7.52147e-07
1.27006e-06
9.70603e-07
2.39837e-06
1.57078e-06
6.53749e-07
6.82135e-07
5.886e-07
6.97972e-07
7.4023e-07
1.85616e-06
2.50639e-06
2.54613e-06
2.53252e-06
1.89206e-06
7.42935e-07
7.33791e-07
6.27274e-07
7.29704e-07
7.1969e-07
1.71962e-06
7.70244e-07
9.71842e-07
2.56117e-06
2.95978e-06
1.5187e-06
1.12688e-06
2.56056e-06
9.71675e-07
7.70064e-07
1.71971e-06
2.24102e-06
1.08612e-06
2.8767e-06
3.85267e-06
7.56689e-06
7.56621e-06
9.41461e-06
1.74914e-05
2.06142e-05
4.03894e-05
4.76371e-05
3.94352e-05
3.98659e-05
4.69102e-05
8.75188e-05
8.71306e-05
3.86864e-05
2.0092e-05
1.6621e-05
1.66724e-05
9.47862e-06
5.02008e-05
0.000232532
0.000931152
0.00317988
0.00914555
0.0221347
0.0618365
0.0703696
0.0551711
0.0750969
0.0630978
0.0742052
0.107375
0.0737994
0.0756343
0.106566
0.0761064
0.0671667
0.0885154
0.0761425
0.068193
0.0449843
0.0612542
0.052667
0.0953398
0.090664
0.0748689
0.102045
0.0748664
0.0906642
0.0953393
0.0761432
0.0681932
0.0671669
0.0885154
0.0761063
0.106563
0.0756342
0.0737995
0.0572984
0.0570564
0.055171
0.063098
0.0742053
0.0750969
0.106161
0.0752055
0.0876714
0.0751527
0.106154
0.0750662
0.0737366
0.0631426
0.0570248
0.0570249
0.073737
0.0750665
0.106153
0.0751554
0.087671
0.0693564
0.0752031
0.106162
0.0557449
0.057589
0.0765907
0.0517775
0.0576467
0.0556508
0.055143
0.0563887
0.057
0.0563887
0.0400807
0.0398212
0.0398212
0.0735154
0.0551426
0.0556498
0.0576467
0.0517789
0.0575898
0.0557442
0.0551214
0.0564399
0.0569565
0.0563465
0.0548987
0.0549458
0.0565606
0.0510244
0.0572873
0.0732878
0.0451782
0.0348446
0.0239216
0.0153861
0.00940159
0.0055089
0.00306984
0.00164599
0.000843717
0.000417
0.000197806
9.06815e-05
3.99597e-05
1.71239e-05
6.75142e-06
6.76717e-06
6.82699e-06
6.83412e-06
7.00399e-06
6.86616e-06
8.88769e-06
7.31222e-06
2.87662e-06
1.08615e-06
2.24111e-06
8.81448e-07
1.90656e-06
9.47913e-06
5.02028e-05
0.000232539
0.000931169
0.00317993
0.00914559
0.0221348
0.0618364
0.0703695
0.0419507
0.0434956
0.0583949
0.0450265
0.0450263
0.0434958
0.0419507
0.0583949
0.0433542
0.0570557
0.0572987
0.0624874
0.055684
0.070299
0.042252
0.0428432
0.0704457
0.0574629
0.0587452
0.0542618
0.0587452
0.0702989
0.0449841
0.0467686
0.0612541
0.0511224
0.0511225
0.0467686
0.0703347
0.0440996
0.0445197
0.0445195
0.0575848
0.0440992
0.0713004
0.07892
0.0783174
0.0773074
0.0815577
0.0794055
0.084398
0.0896309
0.0511782
0.0369906
0.0636425
0.0566855
0.0521222
0.0610406
0.0505403
0.0499739
0.0339298
0.0339296
0.0187186
0.0245802
0.0125459
0.0158635
0.00972057
0.00468454
0.00568335
0.003173
0.0014547
0.00170112
0.00087212
0.000381662
0.000431716
0.000204902
8.58267e-05
9.43039e-05
4.17782e-05
1.67706e-05
1.79165e-05
7.60146e-06
2.9367e-06
2.85286e-06
1.26788e-06
1.20243e-06
1.20232e-06
7.37362e-07
5.43703e-07
7.21493e-07
7.29247e-07
8.11043e-07
7.30427e-07
7.30384e-07
7.64863e-07
8.52787e-07
7.69362e-07
7.69288e-07
7.65302e-07
8.55669e-07
8.08346e-07
8.08333e-07
6.8538e-07
7.787e-07
5.86463e-07
5.86733e-07
6.3302e-07
7.06161e-07
5.51094e-07
6.49575e-07
5.45918e-07
7.24456e-07
5.40507e-07
7.10633e-07
7.58661e-07
6.63849e-07
8.09134e-07
8.90863e-07
5.76361e-07
5.9055e-07
5.2885e-07
7.06795e-07
5.23466e-07
7.4204e-07
7.72492e-07
6.7484e-07
7.44692e-07
9.13901e-07
1.96926e-06
1.86974e-06
9.7689e-06
5.22367e-05
0.000243532
0.000979417
0.00335252
0.00963834
0.0231888
0.0231441
0.0335059
0.0327927
0.0331657
0.0334864
0.0232983
0.0147013
0.0091754
0.00527742
0.00300291
0.00157935
0.000828712
0.000401062
0.000195499
8.75256e-05
3.98671e-05
1.66732e-05
8.58528e-06
1.62379e-05
1.74602e-05
1.74938e-05
4.01775e-05
4.90685e-05
4.018e-05
8.91408e-05
8.94135e-05
8.54561e-05
0.00019264
0.00019646
0.000225914
0.000391937
0.000224171
0.000195495
0.000102802
0.00019018
0.000190985
0.000226205
0.000395819
0.000396556
0.000190507
0.000101954
8.61653e-05
4.71591e-05
3.87691e-05
1.64098e-05
8.64904e-06
6.83396e-06
3.56149e-06
2.54608e-06
1.89208e-06
9.14097e-07
5.40385e-07
7.24586e-07
5.45927e-07
6.497e-07
5.51087e-07
7.06338e-07
6.32775e-07
6.18739e-07
6.85501e-07
6.55136e-07
1.12693e-06
6.63972e-07
6.57612e-07
7.58649e-07
8.09088e-07
7.10817e-07
7.44864e-07
6.74944e-07
1.83578e-06
7.65308e-07
2.1895e-06
1.01313e-05
5.25932e-05
0.000242724
0.000971021
0.00331344
0.00950866
0.0227689
0.0574084
0.0703586
0.0776119
0.0768849
0.0761965
0.0814579
0.0770589
0.107375
0.0808824
0.0556852
0.042252
0.0428428
0.0575847
0.0339009
0.0332776
0.0400657
0.0396864
0.0417951
0.043258
0.0390965
0.041708
0.0335462
0.0232164
0.0232286
0.0227069
0.033067
0.0232011
0.026634
0.0549336
0.0541187
0.0544039
0.0582364
0.0462448
0.0247566
0.0262032
0.0375485
0.026234
0.0107665
0.0105545
0.010476
0.00366532
0.00356517
0.00648301
0.0172422
0.0169843
0.0226163
0.0227126
0.0145333
0.0146919
0.0148456
0.0224762
0.0232597
0.0228109
0.0574629
0.0704455
0.0433542
0.0725186
0.0779396
0.0713006
0.0742478
0.0526666
0.0612387
0.05796
0.0536321
0.0569638
0.0412427
0.0230012
0.00998211
0.00355096
0.00105819
0.000269791
6.05324e-05
1.25632e-05
2.73561e-06
1.05362e-06
1.42924e-06
1.4292e-06
2.2195e-06
1.13946e-05
5.92616e-05
0.000271918
0.00108036
0.00101572
0.00203969
0.00369138
0.00106699
0.000262505
0.000246454
0.000544239
0.000522577
0.000809965
0.000812068
0.000395839
0.000399682
0.00045662
0.000807805
0.00157501
0.00173782
0.0029277
0.00526783
0.00558661
0.00891998
0.00963453
0.00899023
0.00522017
0.00556779
0.00895237
0.0146601
0.0147984
0.0164421
0.0095254
0.00331495
0.00327767
0.0029457
0.00156134
0.00173089
0.00293713
0.00524562
0.00323866
0.00633346
0.0108389
0.0262963
0.0364757
0.0406469
0.0734996
0.0624874
0.0397149
0.0367033
0.0735472
0.0398341
0.0595011
0.0549044
0.0267349
0.0265502
0.0181589
0.0171156
0.0109381
0.00374131
0.00371184
0.00107037
0.000262822
5.53995e-05
5.53503e-05
5.12749e-05
0.000124302
0.000118328
0.000190508
0.00019099
8.61676e-05
8.71342e-05
0.000102805
0.000190189
0.000226219
0.000241303
0.000969199
0.000934007
0.000530606
0.000454094
0.000396579
0.000223298
0.000517228
0.000872147
0.000759884
0.00170117
0.00145478
0.00317318
0.00266656
0.00568353
0.00468477
0.00972098
0.00783988
0.0158637
0.0125464
0.0245807
0.0189495
0.0371276
0.0289426
0.0496234
0.0393398
0.0278094
0.0332524
0.0332525
0.0496235
0.0289426
0.0371276
0.0278093
0.0499743
0.0369906
0.0505405
0.0438971
0.0610409
0.0521223
0.0566857
0.0572875
0.0636429
0.0579599
0.0612403
0.0742475
0.0794068
0.0783191
0.0815572
0.0773053
0.0808821
0.0779378
0.0793446
0.0702307
0.0531456
0.0240254
0.0240651
0.0231126
0.0187188
0.0237528
0.0152396
0.00938517
0.00551416
0.00551392
0.00263836
0.00307973
0.00147677
0.00166172
0.000754324
0.00085074
0.000388573
0.000424981
0.000183829
0.000201205
8.7718e-05
9.40513e-05
3.8891e-05
4.15515e-05
1.72863e-05
1.8533e-05
7.31979e-06
7.70412e-06
3.11558e-06
3.52504e-06
1.79989e-06
3.52483e-06
1.26773e-06
2.85268e-06
2.93666e-06
7.60171e-06
6.9474e-06
1.79169e-05
1.67714e-05
4.17791e-05
3.84141e-05
9.43048e-05
8.58269e-05
0.000204904
0.000184122
0.000431725
0.00038168
0.000388581
0.000424981
0.000216829
0.000201202
9.40531e-05
4.15513e-05
1.85332e-05
8.98728e-06
7.70442e-06
3.11573e-06
4.16389e-06
2.3887e-05
1.72867e-05
2.84649e-05
0.000134862
0.000567969
0.00206569
0.00635424
0.0162201
0.0330577
0.0330574
0.053633
0.0462449
0.0247561
0.0162196
0.023753
0.0126184
0.0152392
0.00773647
0.00938518
0.00473749
0.00605046
0.00966774
0.00773663
0.00902894
0.00337016
0.0026384
0.00307973
0.00166178
0.000850744
0.000754332
0.000986737
0.000885242
0.000246154
0.00018383
5.31687e-05
3.88915e-05
4.63495e-05
1.01505e-05
7.31964e-06
1.89492e-06
9.87236e-07
7.21466e-07
5.43649e-07
5.66702e-07
4.77034e-07
4.77031e-07
5.66903e-07
6.42301e-07
6.06108e-07
5.13328e-07
7.75501e-07
7.20804e-07
6.27088e-07
6.78533e-07
8.90332e-07
5.11568e-07
6.78505e-07
5.11746e-07
5.93765e-07
8.02394e-07
5.27146e-07
4.26434e-07
4.58611e-07
4.51799e-07
4.73745e-07
5.93561e-07
4.51665e-07
6.42327e-07
5.13354e-07
6.06152e-07
6.31865e-07
7.20858e-07
6.78548e-07
6.27127e-07
6.74494e-07
7.72544e-07
7.42018e-07
5.23314e-07
7.06509e-07
5.28814e-07
5.90461e-07
4.74643e-07
4.58715e-07
4.59104e-07
6.21767e-07
6.31895e-07
1.7282e-06
6.52792e-07
5.70435e-07
4.74662e-07
4.38021e-07
4.77519e-07
6.52697e-07
6.21701e-07
7.29125e-07
1.72825e-06
4.16403e-06
1.01798e-05
5.38544e-05
0.000251474
0.00101463
0.00348511
0.0100466
0.0158618
0.0126187
0.0158618
0.0231888
0.0189494
0.0348443
0.0231436
0.0226159
0.0147982
0.014533
0.0096344
0.00891975
0.00558638
0.0052677
0.00527727
0.00323945
0.0029489
0.00300182
0.00324774
0.00520758
0.00899268
0.00915948
0.00956097
0.0146685
0.00954619
0.00917527
0.0147013
0.0146916
0.0224761
0.0148456
0.0232979
0.0232013
0.0227066
0.0232284
0.0232161
0.033067
0.0334865
0.0331653
0.0232595
0.0227125
0.0327924
0.0335053
0.040647
0.0332776
0.0400656
0.0402787
0.0396866
0.033356
0.0417949
0.0390214
0.043258
0.0417083
0.0390959
0.0549044
0.054193
0.0366762
0.0333104
0.0330114
0.0233268
0.0225889
0.0225891
0.0148533
0.0147401
0.00956101
0.0091596
0.00899285
0.0146686
0.00954642
0.00520773
0.00324786
0.00300189
0.00294897
0.00323957
0.0015479
0.000927274
0.000829905
0.000814894
0.000923337
0.00108024
0.000266139
5.63582e-05
1.04393e-05
1.02677e-05
1.01583e-05
9.10682e-06
2.44024e-05
2.31225e-05
3.86754e-05
3.87712e-05
1.64106e-05
1.66215e-05
2.00916e-05
3.86883e-05
4.71611e-05
5.18836e-05
9.78029e-06
8.64914e-06
4.24476e-06
3.50748e-06
2.47052e-06
8.61414e-07
1.91114e-06
1.41284e-06
4.14446e-06
4.06821e-06
1.97606e-06
6.20368e-07
9.62048e-07
4.12728e-06
2.33373e-05
0.000119094
0.000525368
0.00198604
0.00637728
0.00678299
0.0106803
0.011014
0.00377741
0.0035942
0.00212049
0.00199902
0.00639757
0.0052968
0.00527638
0.00330318
0.00294877
0.00294878
0.00174351
0.00158267
0.000945303
0.000816697
0.000816694
0.000459394
0.00040535
0.000225928
0.000196469
0.000192647
0.000391961
0.000224184
0.000564031
0.00102231
0.00109512
0.00027203
0.000248437
0.000128865
0.000122666
8.94155e-05
4.76401e-05
4.03939e-05
3.94352e-05
8.54597e-05
4.69128e-05
2.54279e-05
5.19905e-05
5.86254e-05
1.11741e-05
9.36989e-06
4.38998e-06
2.00131e-06
1.51376e-06
2.08099e-06
7.55881e-07
4.64388e-07
5.68118e-07
4.82598e-07
5.70611e-07
4.64083e-07
7.56336e-07
6.80507e-07
1.0288e-06
2.33243e-06
1.17366e-05
2.49674e-05
2.0614e-05
2.52157e-05
2.42877e-05
1.98419e-05
1.62882e-05
8.42051e-06
0.000121814
0.000101956
8.61337e-05
4.6469e-05
0.00011924
8.77169e-05
0.00011924
0.000517224
0.00192415
0.00335246
0.00963825
0.00783969
0.0153853
0.00952855
0.00895211
0.00556757
0.00521993
0.00327754
0.00292761
0.00173776
0.00157494
0.00157928
0.000923298
0.000814874
0.000829884
0.000927224
0.00154784
0.00158857
0.0017435
0.00158264
0.00199902
0.00376238
0.0109465
0.0264633
0.0171321
0.0171324
0.0366754
0.0333104
0.0335458
0.0330116
0.0351394
0.033901
0.0164421
0.0228109
0.00952537
0.0100424
0.00625728
0.00605053
0.00473757
0.00192416
0.00147683
0.00198194
0.00349036
0.00101891
0.000253386
5.44804e-05
1.03664e-05
2.19876e-06
2.118e-06
1.86988e-06
9.76897e-06
5.22367e-05
0.00024353
0.000979401
0.000759856
0.00164587
0.000922483
0.000809937
0.000454077
0.000812045
0.000933975
0.000807783
0.000456601
0.000399661
0.000401036
0.000828689
0.000525321
0.000522519
0.000544166
0.0010803
0.00366512
0.0104751
0.00635387
0.00206555
0.000567941
0.000134857
0.000271911
5.92608e-05
2.84644e-05
5.68327e-06
1.13937e-05
2.21939e-06
1.41311e-06
4.14416e-06
6.75159e-06
8.42057e-06
6.76721e-06
3.50731e-06
2.50662e-06
9.62028e-07
1.9693e-06
9.78007e-06
5.18825e-05
0.000241298
0.000969188
0.00331493
0.00625723
0.00198193
0.00173083
0.00156615
0.00156127
0.00294558
0.002937
0.00306972
0.00323844
0.00550857
0.00266647
0.00940144
0.00648233
0.0172413
0.0239211
0.0375488
0.0451781
0.0397148
0.056562
0.0510229
0.0732874
0.0582312
0.0544011
0.0549454
0.0548991
0.0734995
0.0563463
0.0569587
0.0564411
0.0735469
0.0551217
0.0549331
0.0541177
0.0364763
0.026232
0.0262024
0.0107659
0.0105541
0.00369097
0.00356477
0.00203943
0.00197475
0.00633308
0.00524541
0.00899006
0.0169837
0.0146599
0.0262955
0.0108384
0.00371157
0.00107028
0.00106685
0.0010156
0.000262468
0.000223291
0.000197804
9.06791e-05
4.64683e-05
3.86749e-05
1.98408e-05
1.62876e-05
1.71231e-05
6.94714e-06
3.99593e-05
3.84135e-05
2.44005e-05
0.000124289
0.000246435
0.000118315
8.61301e-05
5.53449e-05
5.12728e-05
1.01582e-05
9.10605e-06
1.91136e-06
8.61517e-07
2.39855e-06
1.57122e-06
8.02806e-07
5.11721e-07
6.7874e-07
5.1184e-07
8.90398e-07
1.85619e-06
2.47072e-06
4.06801e-06
6.82688e-06
2.31198e-05
2.33346e-05
0.000119079
0.000262797
5.5394e-05
1.02664e-05
1.9761e-06
4.12686e-06
1.04385e-05
5.6352e-05
0.000266118
0.00108016
0.00374115
0.0109379
0.0266335
0.0367037
0.0398343
0.0267342
0.0110135
0.00639759
0.00897024
0.0089702