/*--------------------------------*- C++ -*----------------------------------*\
| =========                 |                                                 |
| \\      /  F ield         | OpenFOAM: The Open Source CFD Toolbox           |
|  \\    /   O peration     | Version:  2306                                  |
|   \\  /    A nd           | Website:  www.openfoam.com                      |
|    \\/     M anipulation  |                                                 |
\*---------------------------------------------------------------------------*/
FoamFile
{
    version     2.0;
    format      ascii;
    arch        "LSB;label=32;scalar=64";
    class       volScalarField;
    location    "0.4";
    object      gradTx;
}
// * * * * * * * * * * * * * * * * * * * * * * * * * * * * * * * * * * * * * //

dimensions      [0 -1 0 1 0 0 0];

internalField   nonuniform List<scalar> 
2658
(
0.00790925
0.0119033
0.00354248
0.000223953
-0.00966082
-0.00808758
0.00634854
0.00635854
2.29778e-05
0.0114489
-0.00929125
-0.00809627
0.0066471
0.00723906
0.00534371
-1.42553e-05
-0.000190119
-0.000370591
-0.00570608
-0.00778981
-0.00800285
-0.0185317
-0.021085
0.014773
-0.00583495
-0.00882522
-0.0188625
-0.00231006
-0.0137843
-0.0155084
-0.0137841
-0.0188629
-0.0088255
-0.0210858
-0.00583436
0.0147728
-0.00538677
0.0035049
-0.0185293
-0.00800511
-0.00778991
-0.00570571
-0.000371769
0.000625045
-0.00708856
0.00666491
-0.00929103
-0.000458569
-1.60761e-05
0.00534358
0.00723889
0.0066465
0.0176491
-0.00336483
0.0192088
0.0161161
-0.00769995
-0.000445669
-0.0254553
0.0161168
-0.0076994
0.0161164
0.0192084
-0.00336416
0.00203368
-0.0277497
0.00194939
-0.000968406
-0.00609779
-0.00609845
0.000210238
0.00447186
-0.000743524
-0.00362742
0.0002948
-0.00388306
0.00487088
3.82091e-05
-0.00299261
0.00325902
-0.00565306
-0.000237803
0.00814249
-0.00748909
-1.70276e-05
-3.05438e-05
7.55187e-06
5.72886e-06
1.79233e-06
3.95835e-07
7.3944e-08
-4.11665e-08
1.16049e-09
-1.93523e-07
8.77121e-08
-4.53851e-08
-1.12806e-07
-1.73763e-09
1.04641e-07
-9.28958e-08
4.18889e-08
1.19391e-07
1.86154e-07
5.96425e-08
6.96183e-08
-1.94335e-07
-1.28217e-08
-1.32241e-09
-2.17724e-08
4.86924e-08
9.30713e-08
3.37654e-08
6.58494e-08
3.37624e-08
9.30601e-08
4.8643e-08
6.97974e-08
-1.94393e-07
1.86269e-07
5.98547e-08
1.19372e-07
4.17681e-08
-9.28923e-08
1.0464e-07
-2.35205e-07
2.13619e-07
-1.93644e-07
-4.54788e-08
-1.1279e-07
8.76634e-08
-5.00137e-08
-1.31172e-07
-6.7094e-08
-6.87948e-08
-5.90845e-08
-2.44541e-08
-6.31024e-08
-3.72596e-07
1.35219e-07
1.35234e-07
-6.30987e-08
-2.45295e-08
1.21291e-08
-5.95324e-08
-6.27041e-08
-5.94477e-08
-1.16187e-08
-4.43375e-08
-1.28279e-07
-1.32893e-07
-1.0138e-07
-1.27105e-07
-1.30879e-07
-1.3269e-07
-1.47875e-07
-2.2911e-07
-1.80723e-07
-8.87024e-08
-1.12772e-07
-9.38953e-08
8.48783e-09
-4.34816e-09
-2.64668e-08
6.59176e-08
9.7628e-08
6.94472e-08
1.52316e-07
2.46931e-07
-2.82788e-08
5.69585e-07
-1.98254e-06
5.33332e-06
-1.11074e-05
2.82943e-05
-5.5608e-05
0.000130155
-0.000241383
0.000515251
-0.000895573
0.00173779
-0.00279809
0.00494859
-0.00726885
0.0119831
-0.0118007
0.0125639
-0.0129573
0.0114485
-0.00966131
0.000223902
-0.00808707
0.00194877
-0.0277493
0.00203344
-0.00809671
0.00381118
-1.70918e-05
-3.05008e-05
7.54274e-06
5.72812e-06
1.79483e-06
3.96548e-07
7.40041e-08
-4.12349e-08
1.10432e-09
4.44205e-09
-7.92097e-08
-4.1353e-08
5.89679e-08
5.90266e-08
-7.91903e-08
4.48643e-09
-4.12083e-08
-5.49126e-09
2.13642e-07
-2.35268e-07
2.04488e-08
1.67073e-07
-5.03371e-09
-2.40797e-08
-2.37823e-08
-7.79179e-09
-2.14716e-08
1.19009e-08
1.69193e-08
1.19174e-08
-5.10285e-09
-1.27985e-08
-9.80223e-08
-1.20928e-09
1.59468e-08
1.59616e-08
-9.80639e-08
-2.63346e-09
5.23347e-08
-9.32757e-08
-9.33386e-08
-3.7201e-09
5.23797e-08
-2.95048e-09
-7.82713e-09
-9.81216e-09
-1.05817e-08
5.10982e-08
-6.54571e-09
4.60639e-09
-5.8353e-08
-5.60757e-08
-3.21811e-08
1.66047e-07
1.00569e-07
1.68201e-07
1.22227e-07
-5.14424e-07
8.27816e-07
-2.3912e-06
-2.39111e-06
1.2503e-07
-4.55875e-06
2.06112e-07
1.10081e-05
-2.36806e-05
4.60794e-07
5.41219e-05
-0.000110069
2.16911e-07
0.000230757
-0.000441654
-4.60303e-06
0.000843646
-0.00149602
-3.02981e-05
0.00262327
-0.00418644
-9.61221e-05
0.0070356
-0.00929562
-0.000594842
0.018434
0.00318071
0.0245812
0.024581
-0.00230954
0.00665504
-0.00194232
0.00857158
0.00063887
-0.00499985
-0.0049997
0.00585594
-0.000167101
-0.00657123
-0.00657105
0.00185964
-0.00235056
-0.0102629
-0.010263
0.00440944
0.0158798
0.00440955
0.00657749
0.0174493
0.00773519
0.0101104
0.011137
-0.0180199
-0.0103891
0.0087533
0.00700408
-8.83394e-05
0.00185975
-0.00105511
-0.003112
0.0120422
-0.00947362
0.00601657
0.0138728
0.00796272
-0.00439758
-0.00579541
-0.00439748
-0.00311252
-0.010389
-0.0180205
0.00773524
0.0174494
0.00657775
0.00875327
0.00700406
0.00796304
0.0138707
0.0060149
-0.00947415
0.0120417
0.00141837
0.0119575
-0.000212995
-0.0122577
0.017636
-0.000159423
-0.00292024
-0.0178786
-0.000152622
-0.00206293
0.000164069
9.56549e-05
2.86284e-05
7.14643e-06
1.48959e-06
2.42146e-07
2.27509e-08
-1.20594e-07
2.18937e-06
-2.47723e-06
2.35231e-06
-2.38261e-06
4.87937e-06
-1.31265e-05
2.669e-05
-6.38493e-05
0.000125098
-0.000269863
0.00050267
-0.000978227
0.00171359
-0.00299235
0.00487062
-0.00748886
2.30697e-05
0.00635855
0.00634769
0.00447267
-0.00265765
0.000316292
-0.00265716
0.00168926
0.00239787
0.002402
-0.0013671
-0.00130302
0.000122607
0.000751464
2.81352e-05
0.00171382
-8.90069e-05
-0.00200081
0.00191888
-9.9382e-06
-0.00106945
0.000983549
-0.00180934
1.06856e-05
-0.00328189
-2.12309e-05
0.00544374
-0.00819028
-3.62066e-05
-0.0129574
-0.000623767
0.00666507
-0.000458548
0.0014187
-0.0178788
-0.00292003
0.000437696
-0.000347104
-8.81944e-05
-7.60179e-05
-3.77609e-05
-1.55882e-05
-5.70909e-06
-1.81745e-06
-4.97049e-07
-1.17425e-07
-2.14572e-08
-7.70284e-09
-2.35835e-08
-3.69468e-09
-2.40394e-08
1.67148e-07
2.04498e-08
-1.55962e-09
-6.09983e-07
5.9195e-07
-6.70613e-07
5.40582e-07
-4.05435e-07
5.3046e-07
-4.72551e-07
1.37861e-06
2.58092e-07
-4.47021e-06
-4.47855e-06
1.59654e-06
7.33106e-09
2.7335e-07
-1.61865e-08
-1.56988e-08
-1.26783e-08
1.21086e-08
1.17737e-07
-4.55043e-07
-5.86209e-07
2.5281e-07
-3.4904e-07
-2.13714e-06
-3.52529e-06
-2.61054e-06
-1.24946e-05
-1.64248e-05
2.60422e-06
7.28975e-07
3.25724e-07
-5.32099e-06
5.57115e-06
-1.38951e-05
1.33436e-05
-5.74483e-07
-6.05831e-06
-9.91076e-08
-6.00534e-08
-1.77965e-07
-3.59079e-07
-9.54043e-06
-3.58901e-05
-6.44338e-05
-5.11522e-05
-0.000174269
-0.000214594
1.83594e-05
8.0268e-06
6.45452e-06
-0.000134525
0.000141093
-0.000292939
0.00028729
-9.35995e-06
-0.000149512
6.6622e-05
-2.49151e-06
-3.24237e-05
-4.04469e-07
3.02389e-05
-6.86007e-05
1.96599e-08
-2.89383e-05
1.25267e-05
-3.58511e-09
-1.34092e-07
-6.71995e-07
-4.55765e-06
2.24766e-07
1.95049e-06
9.18053e-08
-8.87065e-07
-1.60817e-07
4.51765e-07
-1.2481e-07
-3.33155e-08
-1.4983e-08
6.33382e-08
-1.70491e-07
-2.73418e-08
-3.21737e-07
-8.23111e-09
1.09117e-07
1.27191e-06
3.85905e-07
-1.01979e-06
-8.04047e-07
2.06287e-06
1.01595e-05
4.12961e-05
-7.05328e-08
2.97649e-06
-0.000115383
-0.000327806
-0.000622998
-0.000487824
-0.00127168
-0.00186923
-0.000124087
1.66763e-05
6.36736e-05
-0.00180927
0.00191874
-0.00328186
0.00325906
-8.90791e-05
-0.00200061
0.00105697
-3.06155e-05
-0.00059267
-4.06003e-06
0.000564623
-0.00106943
2.58381e-06
-0.000535671
0.000268144
3.90924e-07
-7.17475e-07
-4.12811e-07
-3.03978e-06
-2.36774e-05
4.58951e-07
1.10078e-05
2.05612e-07
1.19031e-06
-1.22503e-05
2.67701e-05
-5.94594e-05
-5.94621e-05
2.26908e-06
0.000122594
1.00672e-05
-0.00025491
6.09662e-06
0.000483768
2.27221e-05
-0.000932538
1.34118e-05
0.00162646
1.80698e-05
-0.00281947
4.19925e-05
0.00462117
-0.000201996
-0.00675056
0.00026961
0.0112617
-0.00188629
-0.0112252
-0.00158358
-0.0112249
0.00318066
0.018434
-0.000594676
-0.00929495
-0.0003015
0.00703513
-9.61049e-05
-0.00418639
-0.000100299
0.00262333
-3.02395e-05
-0.00149575
-2.19985e-05
0.000843683
-4.5792e-06
-0.000441615
-2.79555e-06
0.000230748
2.24511e-07
-0.000110057
4.09638e-07
5.41206e-05
4.6313e-07
3.54287e-06
-4.49297e-06
-1.04776e-06
-2.37636e-07
9.65001e-08
-2.04586e-08
-3.94743e-07
-2.02214e-06
-9.15651e-06
-3.78342e-05
-0.000135548
-0.000393536
-0.000830933
-0.000995717
-0.000238253
-0.00161862
-0.0102547
-0.0102547
-0.010413
-0.00876916
-0.00234328
-0.00109894
-0.00487686
0.0066744
0.00889092
0.000327457
0.00019965
0.000348075
-0.00188597
0.011261
0.000269827
-0.00675052
-0.000835205
-0.000720373
-0.000403068
4.21958e-05
-0.00281937
0.00462087
-0.000202077
-0.000120977
-8.91552e-05
1.80301e-05
0.00162619
1.34647e-05
-0.000932456
-6.35424e-05
-0.000166672
-5.46007e-05
-1.45233e-05
2.27432e-06
0.000122584
-0.000254903
0.000483737
2.27341e-05
-3.728e-05
-1.17823e-05
5.77106e-07
5.00308e-08
9.86901e-10
-5.73527e-07
1.25352e-07
5.09437e-06
2.75276e-07
5.0946e-06
1.18908e-06
-1.22504e-05
6.45251e-07
2.67749e-05
3.54366e-06
-3.03954e-06
-3.17941e-06
6.45568e-07
1.20079e-07
-6.71799e-07
-1.24729e-07
-8.87323e-07
9.19815e-08
1.95034e-06
4.51512e-07
8.27789e-07
-3.22058e-08
-5.14542e-07
1.46136e-07
1.22241e-07
1.68197e-07
1.00441e-07
2.46903e-07
1.66204e-07
7.98451e-08
-3.22793e-08
3.71966e-08
-6.51237e-09
-9.79952e-09
5.10737e-08
-1.0549e-08
6.5467e-09
-3.37701e-09
-4.24207e-09
-3.37269e-09
-2.87684e-09
-1.68908e-09
6.55601e-09
-2.92559e-09
3.72074e-08
-2.18491e-08
-3.2411e-08
7.98115e-08
-8.21e-09
7.8538e-09
7.33563e-09
-1.37937e-08
-6.01007e-08
5.2914e-09
-4.61971e-08
5.35702e-08
1.93793e-07
-2.1962e-07
-1.43303e-08
6.79769e-09
-1.58405e-09
6.55764e-09
-3.43173e-08
-1.14733e-08
-1.42235e-07
-5.98429e-07
-2.16115e-06
-6.64394e-06
3.73514e-06
1.80137e-05
7.00085e-05
0.000203269
-0.000826586
-0.00382742
0.0127691
-0.00194247
0.00665497
-0.0146799
-0.00714735
-0.00714674
-0.0146808
-0.00747783
-0.000141152
-0.0129318
0.020325
0.00163534
-0.000637032
-0.013801
-0.00106179
0.00912517
-0.00672725
-0.0146937
-0.0124816
-0.0112045
-0.00848872
0.00120298
0.00220393
0.00116587
0.000559054
-0.0125932
0.00116611
-0.0074773
-0.0129323
-0.000140723
0.00402841
0.00163579
-0.0138011
-0.000636814
0.0018887
-0.000159289
0.0176363
-0.0122583
-0.000212513
0.0119584
0.000950677
-0.000396465
0.00220455
0.00175876
-0.00344568
0.00402873
0.00280616
0.000417066
-0.00119335
-0.000395952
-4.33591e-05
0.000950033
-0.00194162
-8.83912e-05
-0.00105496
0.000437818
-0.000347156
-0.000623942
-0.000438063
4.58963e-06
1.07675e-05
0.000147497
-0.00509609
0.00544362
-0.00819051
0.00814265
-0.000238102
-0.00565281
-2.11589e-05
-0.000269616
0.000425749
0.000142862
-0.000113952
-4.16407e-05
-1.29305e-05
-3.45347e-06
1.54545e-06
6.23887e-05
-2.89691e-06
-3.52266e-06
-2.32921e-05
1.57363e-06
-2.28126e-05
4.35891e-05
8.24113e-06
-0.000101849
-0.000105142
4.4771e-05
2.11935e-06
0.000198276
3.56983e-05
-0.000394188
-0.000409852
9.27213e-06
0.000751515
0.000122471
-0.00130283
-0.00136717
2.81771e-05
0.00240203
0.000294704
-0.00362711
-0.00388356
3.84397e-05
0.000229296
0.00127502
0.00451275
-0.000120983
-0.00018346
0.000202305
-0.000280465
0.00191031
0.00221374
0.00354188
0.0013496
0.000456663
0.000133111
3.33553e-05
7.13024e-06
2.76141e-06
-6.52021e-06
-9.42498e-06
-1.68105e-05
1.81563e-06
-1.68054e-05
2.98081e-05
9.41099e-06
-7.50996e-05
-7.51191e-05
2.98209e-05
6.12829e-06
1.33477e-06
2.27882e-07
-1.57084e-07
-1.03197e-07
-4.77167e-07
-3.02675e-07
5.99629e-07
-3.02256e-07
1.03542e-06
2.97023e-07
-3.26182e-06
-3.2641e-06
1.0369e-06
-4.1508e-07
5.37479e-08
-5.42212e-08
-5.44648e-08
1.23039e-07
-4.72744e-08
5.38866e-08
-4.73001e-07
5.30718e-07
-4.05095e-07
1.59641e-06
2.58291e-07
-4.47774e-06
-4.47284e-06
1.38061e-06
-4.7715e-07
-1.57057e-07
-3.32771e-08
2.28562e-08
2.25084e-07
-1.98246e-06
-1.20185e-07
-5.32132e-06
-3.8834e-09
-1.38967e-05
-4.05474e-07
-3.24267e-05
-2.48887e-06
6.66273e-05
-6.38593e-05
2.11579e-06
-0.000105142
-0.000101877
8.2348e-06
4.47757e-05
-2.32906e-05
-2.28192e-05
1.5721e-06
8.78055e-06
3.5894e-07
2.66978e-05
-1.31297e-05
1.33454e-05
-6.05872e-06
-5.74095e-07
4.88116e-06
6.84269e-09
-2.38329e-06
2.35236e-06
-9.96421e-08
5.5715e-06
-2.47733e-06
2.18959e-06
-6.10126e-07
-1.48313e-08
5.91944e-07
-9.994e-09
-6.70625e-07
-1.03097e-07
5.41025e-07
1.82397e-07
-9.37798e-08
8.48898e-09
-2.72533e-08
-1.70349e-07
6.33756e-08
2.52884e-07
1.17818e-07
9.6525e-08
-2.37814e-07
-1.04946e-06
-4.55165e-07
-2.61085e-06
-4.50234e-06
-1.88459e-05
-1.25005e-05
-5.11334e-05
-6.76939e-05
-6.75383e-05
-1.8815e-05
1.00615e-05
-0.000181412
-0.00018214
-0.000174171
-0.000488122
-0.000297568
-0.000296111
-0.000313486
-0.000313716
-0.0012726
-0.0104136
-0.00877609
-0.00234574
0.0119831
-3.45554e-05
-0.0118006
0.00032746
-0.0070884
-0.000280344
-0.000152546
-0.00206298
0.000164081
9.56495e-05
2.86505e-05
7.14159e-06
1.49088e-06
2.43048e-07
4.59341e-07
-1.11069e-05
-6.97195e-07
-2.8938e-05
1.69687e-08
-6.86101e-05
-1.39997e-06
-0.000149533
-9.35112e-06
0.000287305
-0.000269892
9.259e-06
-0.000409847
-0.000394283
3.56969e-05
0.000198277
0.000194757
-3.63827e-05
0.000134629
4.0148e-05
-0.000289772
-0.000289832
0.00013467
-3.63741e-05
0.000194717
-2.21711e-05
3.29454e-05
6.98407e-06
1.23775e-06
2.52662e-07
-4.15052e-07
1.09159e-07
-1.47847e-07
-1.33571e-07
-9.05766e-08
-5.9143e-08
-6.86969e-08
-6.70846e-08
-2.19536e-07
-1.31101e-07
-4.996e-08
-1.12567e-07
-8.86944e-08
-1.41777e-08
-1.80702e-07
-2.29207e-07
-8.19768e-09
-1.61875e-08
-1.56989e-08
-1.2754e-08
9.76856e-08
6.59378e-08
-1.57528e-09
-2.6449e-08
-4.35198e-09
-1.70434e-07
5.69656e-07
-1.60778e-07
-2.84568e-08
6.94315e-08
1.52112e-07
1.19773e-08
-3.48712e-07
-5.865e-07
7.28794e-07
5.33449e-06
3.26296e-07
1.25282e-05
-2.13776e-06
-3.52202e-06
2.60049e-06
2.82977e-05
-5.56155e-05
-2.88916e-06
-0.000134542
4.01289e-07
0.000268149
-0.000292957
-4.0715e-06
-0.000592729
-3.06161e-05
0.00105701
-0.000978288
0.000502736
-4.15951e-05
2.26291e-05
-0.000535708
2.57232e-06
0.000564667
-5.70903e-06
-1.82015e-06
-4.97498e-07
-1.17374e-07
-1.3359e-07
-4.09802e-07
-7.16827e-07
-1.17787e-05
-3.72525e-05
8.4503e-07
8.50387e-07
1.25297e-05
1.07043e-05
0.00302752
-3.95011e-05
5.89692e-05
3.91914e-05
0.00755693
-3.45696e-05
-0.000254719
-0.00010996
-3.99203e-05
-1.2248e-05
-3.21915e-06
-7.31875e-07
-2.13143e-06
8.44263e-06
5.76993e-06
5.76628e-06
8.44785e-06
-2.1315e-06
-7.32008e-07
-3.22119e-06
-9.42496e-06
4.36063e-05
-6.51709e-06
-1.63497e-06
1.27242e-06
7.13318e-06
3.3359e-05
-2.21564e-05
-1.01606e-05
-3.51928e-06
-3.45264e-06
1.54901e-06
6.23947e-05
-9.54802e-06
-1.6406e-05
8.01078e-06
0.000130169
-0.000241401
-1.0168e-05
0.000515298
-0.000895645
-2.75246e-05
0.00173792
-0.00279829
-3.92143e-05
-0.00509623
3.92584e-05
0.00755646
-0.00726947
-0.000301325
0.0049486
-0.000100462
-0.000123849
1.65543e-05
1.83139e-05
-6.43592e-05
-3.59245e-05
-0.00011561
-0.000214115
-0.000328097
-0.000621012
-0.00109901
-0.00187221
-0.00487877
0.006674
-0.00538667
0.0035036
-0.0112051
-0.0146933
-0.006727
0.00912533
-0.00106225
0.000624648
0.00889055
0.000202806
0.0125641
-7.60377e-05
-3.77634e-05
-1.56258e-05
-1.73946e-05
-3.9332e-05
5.88797e-05
-0.000120905
-8.91476e-05
1.24944e-05
-0.000109962
6.1156e-05
2.23413e-05
-3.99264e-05
-1.22483e-05
-0.000119165
0.000744032
0.000520241
0.000135408
-0.000954448
-0.00095459
0.00052036
-0.000119164
0.000743924
-6.23146e-05
-2.01561e-05
5.72628e-05
-1.01925e-05
1.38931e-05
7.15108e-07
0.000206588
-0.000138608
0.00239739
0.00168958
-0.000326324
0.000113916
0.000221464
0.00244343
6.22051e-05
0.00585617
-1.27437e-05
0.000199661
0.000348157
0.00280532
0.00857207
-0.00344622
0.00041671
-0.0011933
-0.00848815
0.0203248
-0.0124812
0.00120337
-4.3699e-05
-0.000697775
0.00381132
-0.00044594
0.000761511
0.00361285
-0.00024603
-0.000743607
0.000761031
0.011903
0.00791174
0.019587
0.0115411
0.0161174
0.0174851
-0.000968451
0.00136884
0.000460116
0.000132745
-6.22676e-05
0.000133086
0.000456673
-0.000138446
-0.000326348
9.68426e-07
-2.01498e-05
4.1285e-05
1.0159e-05
2.06501e-06
2.7354e-07
-6.02625e-08
-1.79845e-07
-3.68733e-07
6.46704e-06
0.000141107
-1.09252e-07
2.89188e-06
6.38057e-05
0.00302734
0.000147657
-0.000269203
-0.000113825
0.000142813
0.000425698
1.05234e-05
4.17053e-06
-0.000120507
-0.000438357
0.00127499
0.00451252
0.00190998
0.000229221
-0.000245497
0.00134917
0.000685901
0.00221413
0.000206715
-1.29272e-05
0.000125124
-8.04056e-07
-1.01918e-06
-3.21248e-07
3.86213e-07
2.76199e-06
1.39078e-05
5.74357e-05
-0.00025467
0.000684348
-2.20811e-05
-2.80633e-06
4.08261e-07
3.02392e-05
-1.63509e-06
8.78027e-06
3.59825e-07
7.36674e-09
7.82063e-09
-8.17292e-09
-4.61773e-08
4.66535e-09
5.37898e-09
-6.00399e-08
-1.37595e-08
-2.75053e-09
1.93854e-07
5.36528e-08
-3.72575e-07
-1.29488e-07
1.22791e-07
-4.7502e-08
1.19726e-08
-9.04937e-08
2.25751e-05
0.000983502
-2.74654e-05
-3.61713e-05
0.00188876
-1.24785e-05
-0.00194166
-5.60311e-09
9.87702e-08
6.12261e-06
-1.41718e-05
-2.18779e-06
-0.000252186
-1.0176e-05
-9.90696e-06
-6.98651e-07
-1.39619e-06
-1.70384e-07
-9.95827e-09
1.82369e-07
0.0111371
0.0101103
-6.02711e-05
-0.00142904
-6.02547e-05
0.017649
0.0195878
-7.96855e-09
1.09191e-07
1.27217e-06
2.58047e-07
1.59616e-06
1.37882e-06
-4.47055e-06
-4.47795e-06
6.78145e-09
-2.38268e-06
5.40668e-07
1.82317e-07
-8.88098e-08
-1.12825e-07
-9.38923e-08
8.54469e-09
-4.30453e-09
-2.63886e-08
6.60258e-08
9.75676e-08
6.95115e-08
1.52578e-07
2.46911e-07
-1.60784e-07
1.66282e-07
1.00629e-07
1.6825e-07
7.99319e-08
1.22298e-07
9.87753e-08
1.22305e-07
1.68233e-07
1.00523e-07
2.46948e-07
1.66165e-07
-1.60838e-07
5.69594e-07
-2.83376e-08
1.52617e-07
6.95431e-08
9.77352e-08
6.58817e-08
-2.65757e-08
-1.66294e-09
5.91818e-07
-6.70441e-07
5.40697e-07
-2.73215e-08
8.60323e-09
-9.39088e-08
-1.12808e-07
-8.87137e-08
-1.80941e-07
-1.43272e-08
-2.29142e-07
-4.73518e-08
5.387e-08
-3.0231e-07
5.99424e-07
-5.43937e-08
5.35868e-08
-4.74998e-08
-2.28912e-07
-1.43376e-08
-4.05349e-07
5.30509e-07
-4.72375e-07
-4.77016e-07
1.03667e-06
1.03531e-06
2.96843e-07
-3.26356e-06
-2.13107e-06
8.44306e-06
1.57236e-06
8.78021e-06
-1.31269e-05
3.60567e-07
2.66901e-05
-3.24224e-05
1.33426e-05
-5.73937e-07
-6.05779e-06
4.87954e-06
7.37828e-08
3.96574e-07
1.79796e-06
5.7446e-06
7.58476e-06
-3.04049e-05
-1.68229e-05
0.00381125
-0.0031124
0.012042
-0.00947391
0.00141839
0.011958
-0.000212894
-0.0122582
0.0091253
-0.00672697
-0.014693
-0.0112042
-0.0124808
-0.0129317
0.0203249
0.00402851
0.00280619
-0.000140913
-0.00747769
-0.0146801
-0.00714698
-0.0125929
-0.00714662
-0.0146809
-0.00747754
-0.0129323
0.0203249
-0.0112042
-0.0124812
-0.0146935
-0.00672679
0.00912549
-0.0122583
0.0176361
-0.0178788
0.012042
0.00141883
0.0119583
-0.00947371
0.00601478
0.0138709
0.0101097
0.00773423
0.0174487
0.00657756
0.00440901
0.00875251
-0.0102633
-0.0102631
0.00440908
0.00657715
0.0174485
0.00773441
0.0101096
0.0111359
0.0138724
0.00601571
0.00723878
0.0066465
-0.00336506
0.0176484
0.0192081
0.0195859
0.0161161
0.0161168
0.0174851
0.0161172
-0.0254556
-0.000446218
-0.000445956
-0.00770092
0.0161158
0.019586
0.0192081
0.0176488
0.00664598
0.0072388
0.00534387
-1.41205e-05
-0.000189902
-0.000370586
-0.00570575
-0.00778977
-0.00800338
-0.0185297
-0.0210844
0.00350407
-0.00538666
0.011983
-0.00726914
0.00494866
-0.00279828
0.00173783
-0.00089562
0.000515267
-0.000241411
0.000130167
-5.56107e-05
2.82967e-05
-1.11077e-05
5.33422e-06
-1.98251e-06
2.18933e-06
-2.47701e-06
2.3522e-06
-2.38309e-06
1.59628e-06
2.57989e-07
1.38033e-06
-4.72932e-07
5.30641e-07
-4.05146e-07
1.82362e-07
-4.11055e-08
7.41063e-08
3.98246e-07
1.79461e-06
5.7247e-06
7.52579e-06
-3.04965e-05
-1.70344e-05
0.00381106
-0.0031123
-0.00105525
0.00185944
0.000437688
-0.00657092
-0.006571
0.00185944
-0.00105516
0.00043763
-0.00291999
-0.0178788
0.0176362
-0.0010619
-0.0138009
0.00163533
-0.000636899
0.00188894
-0.000159021
-0.000152543
-0.00206292
-0.000826689
-0.00206292
0.00163506
0.00402835
0.00857159
0.00280619
-0.00194232
-0.00194232
0.00857184
0.000638425
-0.00499991
0.00585592
0.00585601
-1.2548e-05
-0.00499997
0.000416743
0.00175875
0.00220382
0.00120358
-0.00848837
0.00116553
0.000558819
0.0127697
-0.00382754
0.00318061
-0.00583459
-0.00882523
-0.0188637
-0.0137841
0.0245817
-0.011225
0.011261
0.0112614
0.000269713
0.00703533
-9.60525e-05
-0.00418641
0.00262329
-3.01975e-05
-0.00149581
0.000843655
-4.58112e-06
-0.000441622
0.000230759
2.27616e-07
-0.000110069
5.41231e-05
4.62979e-07
-2.36785e-05
1.10085e-05
2.06153e-07
-4.55785e-06
1.95042e-06
9.18835e-08
-8.87067e-07
-3.21118e-08
-5.14477e-07
-5.14444e-07
7.98918e-08
-3.22642e-08
1.59681e-08
-9.79346e-08
-2.7061e-09
5.23771e-08
5.23417e-08
-9.33134e-08
-1.14031e-08
5.91565e-08
5.9223e-08
-7.92748e-08
-1.5365e-09
1.35338e-07
1.3529e-07
-6.3016e-08
-1.15534e-08
-5.93573e-08
-5.94674e-08
-9.05567e-08
-5.91441e-08
-6.88496e-08
-6.72252e-08
-1.31157e-07
-4.98303e-08
8.77086e-08
-1.93585e-07
1.15482e-09
5.3718e-08
1.93837e-07
-2.1976e-07
-6.00424e-08
-1.3823e-08
-1.12867e-07
-1.70917e-09
1.04566e-07
-2.35329e-07
-7.66327e-09
-5.38617e-09
2.13594e-07
-4.54309e-08
-2.14255e-08
1.19347e-08
2.27202e-08
2.42028e-07
1.48844e-06
7.14539e-06
2.86473e-05
9.57183e-05
0.000164096
-3.44831e-05
-0.0118008
0.0125641
-0.0129573
0.0114484
-0.0074886
0.00487059
-0.00299218
0.00171351
-0.000978174
0.000502651
-0.000269863
0.000125104
-6.38532e-05
2.66943e-05
-1.31274e-05
4.88077e-06
7.0553e-09
-4.47715e-06
-4.47218e-06
-3.26241e-06
5.76632e-06
1.81597e-06
5.769e-06
-1.68078e-05
-2.28143e-05
-2.32893e-05
4.47683e-05
4.3594e-05
8.23691e-06
-0.000105135
2.11746e-06
-6.38557e-05
-2.48674e-06
6.66222e-05
-6.85969e-05
-1.39487e-06
0.000141091
-0.000134514
6.23899e-05
2.17187e-08
3.02358e-05
-4.05549e-07
-1.38944e-05
5.57082e-06
-9.93739e-08
2.35222e-06
-1.03091e-07
-6.70453e-07
-2.72061e-08
-4.53983e-08
8.77238e-08
-5.00255e-08
-1.31238e-07
-6.72776e-08
-6.8808e-08
-5.90688e-08
-9.03472e-08
1.19423e-08
-6.31433e-08
-2.44155e-08
-3.72366e-07
5.36505e-08
4.39029e-09
1.14875e-09
1.93678e-07
-1.93517e-07
2.13544e-07
-5.45355e-09
-4.12015e-08
-7.92259e-08
6.72425e-09
2.27985e-07
1.33627e-06
6.13073e-06
2.23462e-05
6.11536e-05
0.000114021
0.000221484
0.00244329
-0.00235082
-0.00579551
-0.00439749
-0.00194175
0.00095052
-4.3898e-05
-0.000212432
-0.00119324
-0.013801
-0.000636898
0.00188863
-1.24194e-05
0.000199578
0.000327502
-0.00708856
0.00666515
-0.00929111
0.00203328
-0.0277501
0.00194852
-0.00808728
0.000224113
0.00634787
0.00635843
-0.00966139
2.30933e-05
0.00127497
0.0045128
-0.000120764
-0.00487787
-0.00877026
-0.0104128
-0.00127156
-0.00187434
-0.00234527
-0.00109874
-0.000328067
-0.000620261
-0.000488333
-0.000174433
-0.000214066
1.66679e-05
-0.000124186
0.000147727
0.00755659
-0.00819024
0.00544348
-0.00565278
-0.000238048
0.00814255
-3.63253e-05
-7.60083e-05
-0.000152704
-0.00015947
-0.00292004
-8.84653e-05
-0.000396098
0.000417027
-0.00344558
-0.000140859
0.00665548
-0.00230928
-0.0102551
-0.00161779
-0.000237692
-0.000995685
-0.000831221
-0.000393524
-0.000135596
-3.78393e-05
-9.15887e-06
-2.02209e-06
-3.94731e-07
-2.04154e-08
9.64159e-08
9.64392e-08
1.17799e-07
-4.54946e-07
-2.61199e-06
-1.25084e-05
-5.12025e-05
-6.43235e-05
1.83435e-05
-0.000115512
-3.59311e-05
-9.54988e-06
-1.63926e-05
8.02253e-06
6.46562e-06
0.000268137
-0.000292947
0.000141086
-0.000149516
-9.35609e-06
0.000287294
-0.00059267
-3.06071e-05
0.00105695
-0.00200071
-8.89615e-05
0.00325877
-2.10146e-05
-0.0032818
0.0019188
1.06303e-05
0.00302743
-0.00509632
3.91682e-05
5.89526e-05
-3.77223e-05
-1.56041e-05
-9.93513e-06
-0.00106941
0.00056461
2.59266e-06
0.000983474
-0.00180925
-2.74868e-05
6.38652e-05
1.06236e-05
4.18057e-06
0.000202542
0.0088906
0.000624987
-0.00106188
0.00667368
-0.000438041
-0.000458254
0.00190958
0.00790993
0.0119024
0.00354158
0.00221721
0.000229594
-0.000269591
0.000425814
0.000142897
2.9104e-06
-8.55793e-08
-3.66705e-07
-1.78627e-07
-2.13903e-06
-3.51516e-06
2.60282e-06
1.54925e-06
6.23889e-05
-6.86027e-05
3.0237e-05
-3.24243e-05
-2.49056e-06
6.66243e-05
-1.40123e-06
-1.81839e-06
-5.70915e-06
-4.06478e-06
-7.16136e-07
3.97724e-07
-0.000134533
-2.89564e-06
-1.17798e-05
0.000230758
-2.79186e-06
-0.000441679
-4.60006e-06
0.000843696
-2.19233e-05
-0.0014959
-3.02775e-05
0.00262324
-0.000100188
-0.00418638
-9.64978e-05
0.00703528
-0.000301571
-0.00929498
-0.000594799
0.0184338
0.0147725
-0.00188651
0.000348165
0.000348109
0.0184342
-0.000594673
-0.0092949
-0.00188646
-0.0112245
0.00318082
0.0245815
-0.00158303
-0.013784
-0.0188627
-0.00882484
-0.0210851
-0.00583459
-0.00230933
0.00665547
-0.00344567
0.00116581
0.00220437
-0.00848825
0.00120375
-0.00119335
-0.000396453
-0.000697804
-0.000167084
6.21263e-05
-8.81949e-05
0.000203242
-0.000720475
0.000269654
-0.00675028
0.00462137
-0.00281953
0.00162632
0.00162622
1.34759e-05
-0.000932506
2.27474e-05
0.000483735
6.11562e-06
-0.000254903
1.00763e-05
0.000122593
2.2747e-06
-5.94653e-05
3.54632e-06
2.67746e-05
6.46335e-07
-1.22496e-05
1.1905e-06
5.09458e-06
1.25578e-07
-2.39106e-06
4.51784e-07
8.27879e-07
1.46176e-07
8.27829e-07
-3.21508e-08
-8.87088e-07
9.19406e-08
1.95067e-06
2.25227e-07
-4.55775e-06
2.06158e-07
1.10087e-05
4.60655e-07
-2.36791e-05
4.62604e-07
5.41222e-05
4.12256e-07
-0.000110071
2.19374e-07
1.00696e-05
0.000122591
-2.18218e-06
-5.94621e-05
2.67733e-05
-1.22496e-05
5.09443e-06
2.75106e-07
-2.39108e-06
4.51711e-07
-1.24678e-07
-6.71559e-07
1.19042e-06
-1.05011e-06
-4.50275e-06
-1.8857e-05
-6.77193e-05
-0.000181953
-0.000296501
-0.000313327
-0.000313171
-0.0102548
-0.0104127
-0.00127145
-0.000297025
-0.00674984
-0.000202251
0.00462128
4.21057e-05
-0.0028194
1.80441e-05
-8.91481e-05
-0.00040312
4.20201e-05
-0.000252041
-0.000166676
1.3449e-05
-0.000932526
0.000483774
-0.000254918
6.10222e-06
-5.4583e-05
-1.41279e-05
-1.45184e-05
2.27054e-06
-3.17754e-06
6.45798e-07
1.21945e-07
-5.73107e-07
1.25499e-07
-5.60161e-08
-5.82734e-08
1.61104e-08
-3.22709e-08
9.32068e-08
3.39153e-08
3.39744e-08
9.31806e-08
4.86983e-08
-2.18008e-08
6.97913e-08
-1.94252e-07
-4.99993e-09
-2.39311e-08
1.67214e-07
2.03916e-08
-9.28395e-08
4.19061e-08
1.19498e-07
5.99149e-08
1.86248e-07
5.11696e-08
-1.05421e-08
-9.80979e-09
-6.42602e-09
4.64544e-09
6.60027e-08
-6.46601e-09
4.8772e-08
6.99085e-08
-2.18153e-08
-1.28726e-08
-4.96832e-09
1.67225e-07
-2.39691e-08
-2.37127e-08
-7.79654e-09
-2.35217e-07
1.04644e-07
-1.70397e-09
-1.12808e-07
-1.3795e-08
-3.34037e-09
-9.79172e-09
-7.82684e-09
3.72166e-08
-1.28363e-08
-1.31041e-09
-2.92237e-09
6.53823e-09
-3.40004e-09
-2.95983e-09
-4.21e-09
-2.9348e-09
3.72157e-08
-9.8011e-08
-1.23241e-09
-1.24678e-07
1.00833e-09
4.98599e-08
5.78015e-07
3.73379e-06
1.8024e-05
6.99853e-05
-0.000120986
-0.000201894
-0.000120987
0.000164031
-0.000301382
0.0119832
-3.46179e-05
0.00755678
3.93319e-05
0.00544359
-2.11508e-05
0.00325902
-8.89805e-05
-0.00200062
0.00171361
2.81931e-05
0.00075142
0.000743949
0.000122504
-0.00136716
0.00240163
0.00239752
0.000294595
-0.00388332
3.85472e-05
-0.00299256
0.00487058
-0.00565282
0.00814236
-0.000237809
-0.00748895
2.33777e-05
0.00635801
0.00634808
0.000223902
-0.00966105
0.0114488
-0.0129573
-3.62142e-05
-0.00819022
0.012564
-0.0118006
0.00889103
0.000327557
-0.00708854
-0.000280375
0.00666523
-0.000623934
-0.0092914
-0.00809615
0.00203329
0.0019491
-0.0277507
0.011903
0.0115405
0.000760828
-0.000968624
-0.00609891
0.000210507
0.00447167
0.00447233
-0.000743093
-0.00362673
0.000294603
0.00239728
0.00240197
-0.00388334
3.83458e-05
-0.0013672
0.000122558
0.00074391
0.000751498
2.81874e-05
-0.000409854
3.56965e-05
0.000194706
0.000198279
9.27043e-06
4.13124e-05
1.01678e-05
2.0651e-06
2.73548e-07
-6.03877e-08
-3.48826e-07
-5.87887e-07
7.29262e-07
3.26097e-07
1.25269e-05
-1.38954e-05
5.57115e-06
-6.05876e-06
-5.73365e-07
1.33442e-05
-4.05615e-07
-4.97597e-07
-1.17322e-07
-9.97138e-08
-3.33044e-08
-1.48296e-08
-6.09936e-07
-1.70332e-07
-1.26855e-08
1.22983e-08
2.52723e-07
6.34093e-08
-1.57041e-08
-4.41941e-09
-9.99795e-09
-1.70361e-07
-8.03819e-07
-3.45301e-06
-1.29307e-05
-4.16392e-05
-0.000113942
1.06766e-06
0.000684885
0.00134878
0.000456609
0.000207422
-2.01079e-05
-6.22913e-05
-0.000138529
-0.00130279
-0.00095463
0.000135342
0.000520194
0.000520316
-0.000119168
-0.000289846
4.01733e-05
0.000134626
0.000134657
-3.63765e-05
-0.000101852
8.23941e-06
4.35958e-05
4.47751e-05
-0.000105144
2.12261e-06
-1.01442e-05
5.76174e-05
0.000133057
3.33499e-05
1.39287e-05
-3.52322e-06
-6.51971e-06
-2.28154e-05
1.57217e-06
8.44568e-06
8.78124e-06
-2.32877e-05
3.6045e-07
-1.01927e-06
2.76051e-06
7.13165e-06
1.27231e-06
3.84956e-07
-3.21483e-07
-1.62514e-08
-8.45544e-09
1.09186e-07
-1.47811e-07
-1.33404e-07
-1.28263e-07
-1.0143e-07
-1.32805e-07
-1.32619e-07
-1.4783e-07
1.2283e-07
-1.30818e-07
2.52594e-07
1.2375e-06
-1.63444e-06
-2.13143e-06
-7.31431e-07
-1.33845e-07
-3.09594e-09
-5.32133e-06
-1.20387e-07
-4.11004e-07
2.09728e-08
-2.8938e-05
-6.97759e-07
-3.03977e-06
3.54659e-06
-3.039e-06
-1.17792e-05
-3.72703e-05
2.86341e-05
9.56763e-05
-0.000100327
0.00494857
-3.94865e-05
0.00302753
1.07171e-05
0.00191874
-9.97114e-06
0.00105701
-3.0614e-05
-0.000592651
0.00050268
9.26948e-06
0.000198259
0.000194722
3.56865e-05
-0.000409802
-0.000394273
-0.000119187
-0.000289773
-6.23065e-05
0.000459918
0.00136816
0.00361232
-0.000246122
-0.000246107
0.00076067
-0.000968501
-0.00808816
-0.00609788
-0.000347129
0.000199637
5.89174e-05
-7.6022e-05
-3.77623e-05
-3.93336e-05
1.25113e-05
-8.91137e-05
1.80022e-05
-3.72641e-05
2.2761e-05
8.53131e-07
-1.73845e-05
-6.6426e-06
-2.15895e-06
-5.98001e-07
-1.42038e-07
-3.42387e-08
1.69244e-08
1.20131e-08
2.2943e-08
2.43093e-07
1.4893e-06
7.1417e-06
-2.7693e-06
0.000515203
-1.0167e-05
0.000268147
4.03636e-07
-0.000292936
-4.06033e-06
0.000287292
-9.35357e-06
-0.000149511
0.000125102
-0.000269879
-1.29401e-05
6.45262e-06
8.03218e-06
-5.12058e-05
-0.00017446
-0.00048791
-0.000181402
-6.75625e-05
-1.88127e-05
-4.49145e-06
-1.25174e-05
-2.61508e-06
-1.04644e-06
-2.37644e-07
-4.54663e-07
1.17842e-07
1.24225e-08
2.52907e-07
-1.98226e-06
-1.19976e-07
2.1896e-06
-1.46938e-08
5.92055e-07
-9.94415e-09
-2.14014e-08
-1.17194e-07
-4.97292e-07
-1.81808e-06
-5.70776e-06
-1.56e-05
1.25395e-05
8.52689e-07
2.5797e-06