/*--------------------------------*- C++ -*----------------------------------*\
| =========                 |                                                 |
| \\      /  F ield         | OpenFOAM: The Open Source CFD Toolbox           |
|  \\    /   O peration     | Version:  2306                                  |
|   \\  /    A nd           | Website:  www.openfoam.com                      |
|    \\/     M anipulation  |                                                 |
\*---------------------------------------------------------------------------*/
FoamFile
{
    version     2.0;
    format      ascii;
    arch        "LSB;label=32;scalar=64";
    class       volVectorField;
    location    "2.3";
    object      flux;
}
// * * * * * * * * * * * * * * * * * * * * * * * * * * * * * * * * * * * * * //

dimensions      [0 1 -1 1 0 0 0];

internalField   nonuniform List<vector> 
5322
(
(-2.1385e-06 5.45377e-06 -7.25869e-06)
(1.16348e-07 6.48094e-07 -6.67333e-06)
(1.24401e-07 1.61573e-07 -5.69225e-06)
(-6.80373e-10 5.32981e-08 -6.15528e-06)
(-8.57127e-09 1.35365e-07 -4.7728e-06)
(-7.5488e-09 1.61707e-07 -3.58313e-06)
(-5.39894e-09 1.46696e-07 -2.60271e-06)
(-3.86375e-09 1.20657e-07 -1.83587e-06)
(-2.93092e-09 9.61966e-08 -1.27253e-06)
(-1.93791e-09 7.13146e-08 -8.96816e-07)
(-1.1139e-09 2.25484e-08 -6.75665e-07)
(6.98893e-09 -1.20019e-07 -6.03733e-07)
(1.00673e-08 -1.22732e-07 -4.3234e-07)
(-1.37419e-07 -1.12065e-07 -6.0904e-07)
(-2.19386e-09 -1.00562e-07 -6.75472e-07)
(2.5517e-07 2.26919e-07 -5.66789e-07)
(-1.99132e-07 2.99894e-07 -6.64693e-07)
(1.38969e-09 -2.86742e-09 -5.23248e-07)
(-1.62373e-07 2.29679e-07 -7.85413e-07)
(1.41487e-07 -3.24996e-07 -9.03075e-07)
(-1.89425e-07 3.53822e-07 -1.09711e-06)
(2.3533e-07 -4.49312e-07 -1.29157e-06)
(-2.48837e-07 5.11406e-07 -1.59051e-06)
(3.59237e-07 -6.56207e-07 -1.89533e-06)
(-3.72422e-07 7.58574e-07 -2.31587e-06)
(5.01642e-07 -9.20109e-07 -2.70261e-06)
(-5.05637e-07 1.05045e-06 -3.25389e-06)
(7.14392e-07 -1.30089e-06 -3.78072e-06)
(-7.17209e-07 1.46713e-06 -4.46726e-06)
(9.43701e-07 -1.72139e-06 -5.06102e-06)
(-8.9683e-07 1.92636e-06 -5.86646e-06)
(1.30181e-06 -2.24011e-06 -6.58486e-06)
(-9.62734e-07 2.53894e-06 -7.43372e-06)
(1.83532e-06 -2.4723e-06 -8.03228e-06)
(1.51515e-07 2.52724e-06 -8.43981e-06)
(2.69029e-06 -1.42971e-06 -7.40901e-06)
(1.90744e-06 2.87141e-06 -8.74582e-06)
(-7.55995e-07 3.50165e-06 -8.64043e-06)
(2.09542e-06 1.77025e-06 -8.90417e-06)
(-1.2451e-07 1.98599e-06 -6.51889e-06)
(-1.98881e-06 2.58755e-06 -8.25297e-06)
(1.99421e-06 2.17331e-06 -8.51939e-06)
(-1.20767e-07 2.32485e-06 -6.39155e-06)
(-2.1204e-06 2.4184e-06 -8.52318e-06)
(2.10962e-06 2.30671e-06 -8.43736e-06)
(-7.21193e-08 2.37021e-06 -6.50495e-06)
(-2.25337e-06 2.3436e-06 -8.64774e-06)
(1.98434e-06 2.50508e-06 -8.17477e-06)
(-4.68591e-08 2.41226e-06 -6.43746e-06)
(-2.36558e-06 2.22552e-06 -8.51238e-06)
(-2.34869e-06 2.80901e-06 -9.72375e-06)
(-3.37379e-06 1.25759e-06 -6.59685e-06)
(-1.11569e-06 1.47249e-06 -9.21614e-06)
(2.13748e-06 -4.55039e-06 -8.16391e-06)
(-1.40949e-07 -2.21167e-07 -7.28536e-06)
(-3.49239e-06 -2.61364e-06 -7.72698e-06)
(-1.07211e-07 1.43857e-06 -9.57022e-06)
(3.31953e-06 -3.40463e-06 -7.57892e-06)
(-4.01258e-08 -1.62272e-07 -7.29999e-06)
(-3.31889e-06 -2.95813e-06 -7.70776e-06)
(-1.44046e-08 1.45984e-06 -9.67035e-06)
(3.23312e-06 -3.34571e-06 -7.68059e-06)
(-1.69873e-08 -1.44261e-07 -7.29837e-06)
(-3.25957e-06 -2.93653e-06 -7.5194e-06)
(3.20749e-09 1.46641e-06 -9.67085e-06)
(3.19001e-06 -3.47036e-06 -7.9557e-06)
(4.7342e-08 -1.97846e-07 -7.27385e-06)
(-3.22826e-06 -2.84898e-06 -7.15263e-06)
(1.69057e-07 1.48756e-06 -9.48767e-06)
(2.66258e-06 -3.87068e-06 -8.49404e-06)
(1.52933e-07 1.16712e-07 -6.05748e-06)
(-2.55516e-06 3.02408e-06 -8.95682e-06)
(2.90177e-06 1.67825e-06 -8.52402e-06)
(-2.9909e-06 2.35298e-06 -8.39715e-06)
(2.87808e-06 1.74995e-06 -8.47715e-06)
(-2.93217e-06 2.22391e-06 -8.43646e-06)
(2.93468e-06 1.85031e-06 -8.43061e-06)
(-2.93615e-06 2.21741e-06 -8.40919e-06)
(3.34472e-06 1.88675e-06 -8.54361e-06)
(-2.45043e-06 2.64543e-06 -8.15513e-06)
(1.15478e-06 1.97096e-07 -7.92664e-06)
(-1.77292e-06 1.02553e-06 -6.40638e-06)
(-1.19502e-06 1.5019e-06 -6.64432e-06)
(1.87221e-06 2.39201e-06 -8.53927e-06)
(1.57089e-07 -1.56564e-07 -5.51855e-06)
(-8.36894e-07 -8.67417e-07 -7.5732e-06)
(1.35776e-06 3.16213e-07 -1.10341e-05)
(-3.74907e-06 6.00753e-07 -7.16785e-06)
(-1.19354e-06 1.27978e-06 -7.18726e-06)
(4.1333e-06 1.84597e-07 -6.23546e-06)
(-1.87301e-07 3.43849e-07 -7.70496e-06)
(4.22765e-08 6.15999e-08 -5.52663e-06)
(7.38939e-08 8.57208e-09 -5.82207e-06)
(4.69607e-07 8.27627e-09 -5.81037e-06)
(2.45772e-06 2.95714e-06 -7.48152e-06)
(-4.92897e-07 -1.69909e-06 -7.1628e-06)
(2.91272e-08 5.52555e-08 -6.79435e-06)
(-1.81949e-07 1.71743e-06 -7.25802e-06)
(1.39723e-06 5.27157e-08 -1.12186e-05)
(-3.31156e-06 -8.75063e-08 -6.95765e-06)
(-3.30483e-06 3.09336e-07 -7.04052e-06)
(6.81146e-06 5.52426e-08 -6.32343e-06)
(-1.83393e-07 1.83558e-06 -7.31589e-06)
(1.90137e-06 -2.8761e-06 -7.4009e-06)
(3.10396e-06 2.58085e-06 -8.08018e-06)
(6.29914e-08 5.98978e-08 -6.60969e-06)
(3.27932e-08 -5.74334e-08 -6.94782e-06)
(2.55953e-08 -7.19683e-09 -6.21216e-06)
(1.26116e-08 1.62672e-09 -4.82901e-06)
(4.19497e-09 5.58876e-09 -3.63571e-06)
(4.96901e-10 5.18341e-09 -2.64129e-06)
(-9.0129e-10 3.99906e-09 -1.8585e-06)
(-1.64302e-09 3.25832e-09 -1.28011e-06)
(-2.18969e-09 2.83204e-09 -8.94298e-07)
(1.88805e-09 -1.42125e-09 -7.70968e-07)
(-1.15893e-09 1.16264e-09 -6.9039e-07)
(-8.25412e-08 8.46367e-08 -4.93976e-07)
(-7.9857e-08 -3.26273e-08 -5.28715e-07)
(1.01652e-08 -1.32918e-08 -7.47383e-07)
(4.97905e-08 -6.28364e-08 -5.78713e-07)
(2.03187e-09 7.82339e-08 -5.02985e-07)
(7.36123e-08 -3.98142e-08 -5.98135e-07)
(-8.83494e-08 -7.97373e-08 -5.89719e-07)
(-6.8505e-09 -1.10797e-07 -8.22827e-07)
(-2.20921e-08 -1.24411e-07 -6.17024e-07)
(1.37433e-07 -4.85517e-09 -8.06433e-07)
(1.11929e-07 9.25499e-08 -5.84231e-07)
(2.97747e-08 -6.90455e-08 -6.10091e-07)
(8.79604e-08 6.69302e-09 -7.93333e-07)
(5.55483e-08 7.59324e-08 -5.82924e-07)
(4.171e-08 -7.54294e-08 -5.98142e-07)
(9.45164e-08 3.25606e-09 -8.01011e-07)
(4.61875e-08 7.88511e-08 -5.92131e-07)
(4.96993e-08 -8.09008e-08 -5.87297e-07)
(9.61468e-08 -2.64718e-09 -8.04485e-07)
(4.00827e-08 7.34397e-08 -5.99838e-07)
(7.93854e-08 -8.83208e-08 -5.90331e-07)
(1.09387e-07 -7.21138e-09 -8.25598e-07)
(1.23286e-07 -2.20819e-08 -6.18565e-07)
(5.1835e-09 1.35776e-07 -8.07978e-07)
(-9.15966e-08 1.11384e-07 -5.86561e-07)
(4.20855e-09 -7.64254e-08 -5.05147e-07)
(6.27944e-08 5.01685e-08 -5.79475e-07)
(-7.72849e-08 3.88802e-08 -5.21783e-07)
(-8.43101e-08 -8.27707e-08 -4.95185e-07)
(1.36218e-08 1.06053e-08 -7.48178e-07)
(3.29049e-08 -7.96609e-08 -5.29285e-07)
(1.72272e-08 6.21917e-08 -5.26342e-07)
(-6.58833e-08 6.48135e-08 -4.89514e-07)
(-7.26375e-08 -7.1682e-08 -4.93262e-07)
(1.54975e-08 -9.93667e-10 -7.50634e-07)
(1.96212e-08 -6.57014e-08 -5.27113e-07)
(2.42597e-08 6.63122e-08 -5.25187e-07)
(-7.18274e-08 7.2833e-08 -4.90436e-07)
(-6.75669e-08 -6.44857e-08 -4.9339e-07)
(1.56664e-08 -1.66915e-10 -7.50063e-07)
(1.21033e-08 -6.07094e-08 -5.27442e-07)
(3.96025e-08 7.83435e-08 -5.21177e-07)
(-7.64292e-08 -3.9032e-09 -5.04386e-07)
(1.00582e-07 -2.31243e-09 -6.76e-07)
(-2.25951e-07 2.554e-07 -5.66448e-07)
(-2.99285e-07 -1.98782e-07 -6.66204e-07)
(2.95393e-07 2.46637e-07 -8.70085e-07)
(-3.8666e-07 -3.03472e-07 -9.74476e-07)
(-1.92433e-08 1.28958e-08 -5.69975e-07)
(-2.30654e-07 -1.60927e-07 -7.86818e-07)
(4.25462e-09 1.26415e-09 -5.23927e-07)
(2.10145e-07 8.06634e-09 -6.75624e-07)
(-4.8951e-08 -2.40209e-08 -4.40519e-07)
(2.28124e-07 6.88454e-08 -5.8957e-07)
(1.12454e-07 -1.37407e-07 -6.10329e-07)
(1.68535e-07 1.37181e-07 -5.68359e-07)
(-2.7125e-07 -2.44426e-07 -6.25314e-07)
(1.01734e-07 8.19178e-10 -6.94062e-07)
(-2.34131e-07 2.50268e-07 -5.98201e-07)
(1.75967e-07 -2.7739e-07 -8.24492e-07)
(2.2876e-07 2.88774e-07 -8.17703e-07)
(-3.18736e-07 -3.40481e-07 -9.10123e-07)
(2.06712e-08 1.73397e-09 -7.0302e-07)
(-2.70898e-07 3.36124e-07 -9.09345e-07)
(2.85729e-07 -4.08211e-07 -1.10659e-06)
(3.55296e-07 4.23511e-07 -1.10754e-06)
(-4.49688e-07 -5.05268e-07 -1.31157e-06)
(1.81907e-08 2.34206e-09 -9.99202e-07)
(-3.7699e-07 4.95309e-07 -1.31386e-06)
(4.35226e-07 -6.01572e-07 -1.5978e-06)
(5.31937e-07 6.22149e-07 -1.59874e-06)
(-6.54e-07 -7.43802e-07 -1.91171e-06)
(2.83384e-08 2.85092e-09 -1.45921e-06)
(-5.46159e-07 7.29072e-07 -1.91451e-06)
(6.41151e-07 -8.76464e-07 -2.31204e-06)
(7.79439e-07 9.05624e-07 -2.31331e-06)
(-9.43529e-07 -1.0708e-06 -2.73928e-06)
(4.01428e-08 4.06566e-09 -2.10667e-06)
(-7.88445e-07 1.05032e-06 -2.74427e-06)
(9.06621e-07 -1.24615e-06 -3.26869e-06)
(1.10608e-06 1.28754e-06 -3.27237e-06)
(-1.33421e-06 -1.49431e-06 -3.80928e-06)
(5.3784e-08 6.33092e-09 -2.95888e-06)
(-1.11738e-06 1.46536e-06 -3.8188e-06)
(1.22594e-06 -1.71866e-06 -4.47957e-06)
(1.51125e-06 1.77556e-06 -4.48863e-06)
(-1.83744e-06 -2.00907e-06 -5.11966e-06)
(7.1474e-08 9.15567e-09 -4.01919e-06)
(-1.53662e-06 1.96489e-06 -5.13566e-06)
(1.5794e-06 -2.28345e-06 -5.92275e-06)
(1.98097e-06 2.35614e-06 -5.94124e-06)
(-2.42617e-06 -2.55794e-06 -6.64171e-06)
(9.81061e-08 1.28242e-08 -5.24866e-06)
(-2.00255e-06 2.48677e-06 -6.66855e-06)
(1.89872e-06 -2.88419e-06 -7.42977e-06)
(2.36561e-06 2.90849e-06 -7.44879e-06)
(-4.37081e-07 -1.70375e-06 -7.24492e-06)
(1.3367e-06 -1.14482e-08 -1.12192e-05)
(-3.27942e-06 -1.82901e-07 -6.95591e-06)
(-3.34451e-06 8.99493e-08 -6.93418e-06)
(6.84306e-06 -5.75145e-08 -6.34344e-06)
(-2.88233e-07 -2.72491e-09 -8.69572e-06)
(-3.08459e-07 1.63369e-08 -8.67534e-06)
(8.5741e-08 2.5597e-08 -5.82248e-06)
(5.09883e-07 1.85767e-09 -5.81711e-06)
(2.4463e-06 2.96068e-06 -7.46586e-06)
(-3.67457e-07 -1.69677e-06 -7.22196e-06)
(5.3963e-08 8.81552e-09 -6.73159e-06)
(-4.3485e-07 2.03703e-06 -7.3401e-06)
(1.2811e-06 -3.09769e-07 -1.12062e-05)
(-3.33539e-06 -1.29845e-07 -7.00045e-06)
(-3.28887e-06 1.11877e-07 -6.92716e-06)
(6.80155e-06 -1.13747e-07 -6.35862e-06)
(-2.36693e-07 1.70722e-06 -7.21536e-06)
(1.90049e-06 -2.91601e-06 -7.43745e-06)
(2.62538e-08 1.8156e-08 -6.7896e-06)
(5.26713e-08 1.29772e-08 -6.79562e-06)
(3.05109e-08 3.64224e-08 -6.20071e-06)
(1.65486e-08 1.9987e-08 -4.83066e-06)
(6.53374e-09 8.40271e-09 -3.64032e-06)
(1.62619e-09 2.60131e-09 -2.64479e-06)
(-4.13948e-10 6.88742e-11 -1.86061e-06)
(-1.45187e-09 -1.27245e-09 -1.28124e-06)
(-1.9892e-09 -2.04843e-09 -8.94868e-07)
(1.86713e-09 1.87097e-09 -7.71406e-07)
(-1.10532e-09 -1.1367e-09 -6.91021e-07)
(6.48327e-08 -6.77144e-08 -4.92851e-07)
(-7.23017e-08 -7.24568e-08 -4.92035e-07)
(7.23597e-08 -7.26052e-08 -4.91685e-07)
(-6.48121e-08 -6.77429e-08 -4.92521e-07)
(2.64354e-10 1.60297e-08 -7.49995e-07)
(6.46887e-08 2.22534e-08 -5.25088e-07)
(-6.04429e-08 1.30973e-08 -5.27363e-07)
(-1.06271e-10 -8.91415e-08 -5.17837e-07)
(-7.32503e-08 4.3345e-08 -5.9828e-07)
(1.10776e-10 -9.1305e-08 -8.68585e-07)
(-6.44029e-08 2.21992e-08 -5.25187e-07)
(1.23262e-10 1.60623e-08 -7.50254e-07)
(6.06092e-08 1.32346e-08 -5.27592e-07)
(2.44629e-09 -9.02216e-08 -8.63344e-07)
(6.82683e-08 2.97371e-08 -6.09155e-07)
(-5.69171e-09 8.56291e-08 -7.91727e-07)
(-7.41189e-08 5.3992e-08 -5.83055e-07)
(1.53724e-10 -8.91397e-08 -5.1813e-07)
(7.32588e-08 4.34747e-08 -5.98384e-07)
(-2.61279e-11 9.29936e-08 -7.91876e-07)
(5.48901e-11 1.3013e-07 -4.26839e-07)
(1.33617e-07 1.40019e-07 -5.86603e-07)
(-2.43723e-07 -2.46821e-07 -5.9856e-07)
(2.438e-07 -2.46425e-07 -5.97903e-07)
(-2.40525e-07 -2.64747e-07 -6.25642e-07)
(2.84913e-07 2.17143e-07 -8.17573e-07)
(-3.36167e-07 -3.06253e-07 -9.10493e-07)
(4.17894e-07 3.36994e-07 -1.10772e-06)
(-4.98486e-07 -4.29035e-07 -1.31192e-06)
(6.13664e-07 5.04444e-07 -1.59947e-06)
(-7.33647e-07 -6.22354e-07 -1.91191e-06)
(8.93194e-07 7.395e-07 -2.3147e-06)
(-1.05621e-06 -8.96906e-07 -2.73956e-06)
(1.27001e-06 1.04983e-06 -3.2748e-06)
(-1.47372e-06 -1.26811e-06 -3.80946e-06)
(1.75194e-06 1.43566e-06 -4.49328e-06)
(-1.98126e-06 -1.7492e-06 -5.11839e-06)
(2.32714e-06 1.8883e-06 -5.95045e-06)
(-2.52429e-06 -2.32119e-06 -6.63477e-06)
(2.92561e-06 2.36369e-06 -7.50048e-06)
(-1.6867e-06 -4.38402e-07 -7.15743e-06)
(4.17982e-08 1.42122e-06 -1.12235e-05)
(1.70912e-06 -2.63891e-07 -7.28959e-06)
(4.93784e-08 3.65872e-08 -6.79319e-06)
(-2.84902e-06 2.04672e-06 -7.41363e-06)
(2.4602e-06 -2.13638e-06 -6.6869e-06)
(1.45764e-08 1.04452e-07 -5.25262e-06)
(-2.25626e-06 1.71184e-06 -5.9227e-06)
(1.94085e-06 -1.65315e-06 -5.14401e-06)
(9.02772e-09 7.45164e-08 -4.02221e-06)
(-1.69838e-06 1.33013e-06 -4.48317e-06)
(1.44643e-06 -1.20625e-06 -3.8221e-06)
(5.57526e-09 5.52428e-08 -2.96077e-06)
(-1.23152e-06 9.82472e-07 -3.27197e-06)
(1.03641e-06 -8.52027e-07 -2.74545e-06)
(3.34627e-09 4.07932e-08 -2.10774e-06)
(-8.66185e-07 6.94022e-07 -2.3144e-06)
(7.19335e-07 -5.89805e-07 -1.9148e-06)
(2.15957e-09 2.85698e-08 -1.45978e-06)
(-5.9456e-07 4.71325e-07 -1.59975e-06)
(4.88752e-07 -4.05802e-07 -1.31351e-06)
(1.7034e-09 1.82414e-08 -9.99482e-07)
(-4.03575e-07 3.09746e-07 -1.10843e-06)
(3.31483e-07 -2.8941e-07 -9.08579e-07)
(1.33336e-09 2.05347e-08 -7.02996e-07)
(-2.73839e-07 1.9057e-07 -8.25739e-07)
(3.51412e-10 -1.81777e-08 -6.36606e-07)
(2.74355e-07 1.90522e-07 -8.25142e-07)
(-3.30758e-07 -2.89499e-07 -9.09284e-07)
(-1.12218e-09 2.05522e-08 -7.03129e-07)
(-2.83977e-07 2.18126e-07 -8.18295e-07)
(2.40616e-07 -2.63462e-07 -6.25788e-07)
(-4.99078e-10 1.01761e-07 -6.94397e-07)
(-1.34584e-07 1.62854e-07 -5.67629e-07)
(-8.73053e-09 1.19041e-07 -4.31764e-07)
(1.36691e-07 1.13443e-07 -6.12416e-07)
(-2.52458e-07 -2.31788e-07 -5.67802e-07)
(2.73639e-07 1.72671e-07 -8.27266e-07)
(-3.31385e-07 -2.76252e-07 -9.09924e-07)
(3.97849e-07 2.96373e-07 -1.10621e-06)
(-4.81976e-07 -3.85739e-07 -1.3165e-06)
(5.86947e-07 4.55608e-07 -1.60064e-06)
(-7.04998e-07 -5.61274e-07 -1.91675e-06)
(8.57061e-07 6.72833e-07 -2.32099e-06)
(-1.01263e-06 -8.12909e-07 -2.74626e-06)
(1.22349e-06 9.55312e-07 -3.28761e-06)
(-1.41038e-06 -1.1582e-06 -3.81953e-06)
(1.69963e-06 1.30484e-06 -4.52194e-06)
(-1.88658e-06 -1.60151e-06 -5.11811e-06)
(2.27924e-06 1.70961e-06 -6.01403e-06)
(-2.36915e-06 -2.06172e-06 -6.58126e-06)
(2.8781e-06 2.07714e-06 -7.54211e-06)
(-1.66658e-06 -2.5028e-07 -7.20496e-06)
(-4.04571e-07 1.05975e-06 -1.10953e-05)
(7.03099e-07 -8.75222e-07 -7.65475e-06)
(7.93126e-08 8.08209e-08 -6.58329e-06)
(-2.67935e-06 2.8695e-06 -8.08617e-06)
(2.15373e-06 -3.01035e-06 -7.23175e-06)
(1.88426e-08 1.36553e-07 -5.10403e-06)
(-2.06099e-06 2.47167e-06 -6.42729e-06)
(1.74887e-06 -2.25663e-06 -5.52768e-06)
(-6.31053e-09 8.83422e-08 -3.9043e-06)
(-1.50369e-06 1.89234e-06 -4.83926e-06)
(1.29297e-06 -1.60923e-06 -4.08631e-06)
(-1.06269e-08 5.94526e-08 -2.86752e-06)
(-1.08196e-06 1.3781e-06 -3.51917e-06)
(9.1989e-07 -1.12979e-06 -2.92814e-06)
(-9.26811e-09 4.21392e-08 -2.03907e-06)
(-7.61489e-07 9.73336e-07 -2.4862e-06)
(6.39146e-07 -7.8094e-07 -2.0408e-06)
(-8.78465e-09 2.88729e-08 -1.4116e-06)
(-5.23265e-07 6.70049e-07 -1.71513e-06)
(4.38803e-07 -5.35054e-07 -1.39921e-06)
(-8.90462e-09 1.89717e-08 -9.66534e-07)
(-3.5545e-07 4.53482e-07 -1.18482e-06)
(3.03495e-07 -3.79398e-07 -9.74693e-07)
(-1.06553e-08 2.2067e-08 -6.79514e-07)
(-2.41405e-07 2.92582e-07 -8.6997e-07)
(1.97516e-07 -2.95392e-07 -6.66565e-07)
(2.73856e-09 1.00803e-07 -6.76606e-07)
(-6.7593e-08 2.27735e-07 -5.9014e-07)
(1.13238e-07 2.00117e-07 -6.12471e-07)
(1.87235e-07 -1.00151e-07 -5.44508e-07)
(-2.5634e-09 2.11139e-07 -6.77376e-07)
(2.10268e-08 -4.87206e-08 -4.39703e-07)
(-3.45032e-08 3.22472e-08 -5.02508e-07)
(1.02181e-07 2.43483e-07 -5.97699e-07)
(-3.15827e-07 -2.12525e-07 -5.54531e-07)
(2.69624e-07 2.21145e-07 -8.43101e-07)
(-3.86981e-07 -2.41915e-07 -9.43784e-07)
(-2.60697e-07 3.8851e-07 -9.12104e-07)
(-3.24273e-07 -3.4309e-07 -9.09096e-07)
(2.19592e-08 -3.06864e-09 -6.99526e-07)
(1.86741e-07 -3.32205e-07 -8.16844e-07)
(2.07731e-07 2.84217e-07 -8.3073e-07)
(-2.65202e-07 -2.59097e-07 -5.7693e-07)
(9.78825e-08 6.63447e-09 -6.95355e-07)
(-2.35865e-07 2.70725e-07 -6.38457e-07)
(-2.06878e-08 1.1376e-08 -6.38919e-07)
(9.5445e-09 2.70222e-09 -6.24576e-07)
(-9.03791e-08 -7.27129e-08 -8.34214e-07)
(7.39385e-09 6.84654e-09 -6.51819e-07)
(-3.75924e-09 -5.75775e-09 -6.18954e-07)
(-9.39316e-08 3.86122e-09 -8.61014e-07)
(3.56905e-09 -1.78714e-09 -6.79214e-07)
(-1.97737e-08 -7.57256e-10 -6.37585e-07)
(-2.41465e-07 2.49232e-07 -6.19159e-07)
(-2.61947e-07 -2.49608e-07 -6.02066e-07)
(2.13242e-07 2.80998e-07 -8.2589e-07)
(-3.14932e-07 -3.36447e-07 -9.08884e-07)
(-7.93907e-09 4.37167e-10 -8.34808e-07)
(3.43727e-07 4.13419e-07 -1.10919e-06)
(-4.46207e-07 -4.96361e-07 -1.31368e-06)
(5.22631e-07 6.09732e-07 -1.60049e-06)
(-6.50177e-07 -7.3022e-07 -1.91477e-06)
(-2.75448e-08 2.01393e-09 -1.73334e-06)
(7.70736e-07 8.89628e-07 -2.3163e-06)
(-9.39523e-07 -1.05072e-06 -2.74363e-06)
(1.0954e-06 1.26721e-06 -3.27724e-06)
(-1.32994e-06 -1.46393e-06 -3.81476e-06)
(1.84869e-09 4.14705e-09 -3.40251e-06)
(1.49448e-06 1.74987e-06 -4.49553e-06)
(-1.82465e-06 -1.96115e-06 -5.12375e-06)
(1.94635e-06 2.32032e-06 -5.94558e-06)
(-2.37484e-06 -2.48621e-06 -6.6475e-06)
(4.91703e-07 -4.14703e-09 -5.81914e-06)
(8.45991e-08 4.43407e-09 -5.82417e-06)
(2.38813e-08 7.07435e-09 -4.54126e-06)
(2.8743e-08 2.01959e-08 -4.54586e-06)
(-1.19145e-08 1.03985e-08 -3.42157e-06)
(5.48603e-09 1.04334e-08 -3.41252e-06)
(1.54942e-06 1.7681e-06 -4.51817e-06)
(-1.87304e-06 -1.96035e-06 -5.12901e-06)
(8.35448e-08 9.09666e-09 -4.02284e-06)
(-1.5195e-06 2.32853e-06 -5.18266e-06)
(1.4658e-06 -2.64736e-06 -5.9097e-06)
(2.03103e-06 2.36606e-06 -5.99065e-06)
(-2.38399e-06 -2.46278e-06 -6.61608e-06)
(1.28867e-07 2.32854e-08 -5.24667e-06)
(-2.09615e-06 3.00517e-06 -6.76541e-06)
(1.67922e-06 -3.22891e-06 -7.347e-06)
(3.37085e-06 2.07329e-06 -8.28226e-06)
(-2.94323e-07 -1.55875e-06 -7.01737e-06)
(1.5636e-07 -2.85165e-06 -1.12413e-05)
(-3.59506e-06 -2.1789e-07 -7.15892e-06)
(-3.33945e-06 -4.46304e-09 -6.79429e-06)
(6.49807e-06 -1.02415e-06 -6.56307e-06)
(-4.37799e-07 -2.74881e-07 -8.47759e-06)
(6.84509e-08 4.49932e-08 -5.52137e-06)
(1.23184e-07 1.52354e-06 -5.00874e-06)
(-1.58964e-06 1.88096e-06 -6.94623e-06)
(3.16369e-07 1.24351e-07 -4.32723e-06)
(9.53552e-07 -2.56525e-06 -5.91032e-06)
(-9.90775e-07 1.73629e-06 -5.22885e-06)
(6.64751e-08 -2.27826e-09 -3.25543e-06)
(7.70682e-07 -1.60888e-06 -4.49369e-06)
(-6.87934e-07 1.29607e-06 -3.82092e-06)
(2.91482e-09 -2.05496e-08 -2.37867e-06)
(5.41027e-07 -1.09362e-06 -3.28888e-06)
(-5.035e-07 9.36362e-07 -2.73405e-06)
(-5.99662e-09 -1.44659e-08 -1.69089e-06)
(3.58227e-07 -7.41141e-07 -2.315e-06)
(-3.4417e-07 6.496e-07 -1.88866e-06)
(-1.21472e-08 -1.51325e-08 -1.16967e-06)
(2.56924e-07 -5.08698e-07 -1.59883e-06)
(-2.29104e-07 4.60786e-07 -1.29066e-06)
(-1.64768e-08 -1.44136e-08 -8.01537e-07)
(1.87147e-07 -3.32551e-07 -1.09389e-06)
(-1.29848e-07 3.29079e-07 -8.96568e-07)
(-1.86561e-08 -2.28857e-08 -5.68508e-07)
(1.67753e-07 -2.1798e-07 -7.88517e-07)
(5.95799e-08 5.80372e-08 -5.65536e-07)
(4.24303e-08 9.35493e-08 -5.43775e-07)
(-8.3861e-09 -1.38247e-07 -7.24631e-07)
(-4.19497e-09 -5.92053e-09 -6.72358e-07)
(8.27463e-08 2.42795e-07 -8.05837e-07)
(-3.49502e-08 -2.61715e-07 -1.00356e-06)
(4.27654e-07 2.98145e-07 -1.12386e-06)
(-5.44175e-07 -3.51652e-07 -1.35577e-06)
(6.49087e-07 4.31507e-07 -1.6349e-06)
(-7.93018e-07 -5.15718e-07 -1.97128e-06)
(-5.12597e-07 8.37106e-07 -1.91262e-06)
(-6.68033e-07 -7.34696e-07 -1.91921e-06)
(2.88104e-08 -3.13302e-09 -1.45637e-06)
(4.26494e-07 -6.99816e-07 -1.60353e-06)
(5.36854e-07 6.09995e-07 -1.60258e-06)
(-4.58037e-07 -5.01217e-07 -1.31722e-06)
(1.86892e-08 -3.68058e-09 -9.96916e-07)
(-3.52995e-07 5.69245e-07 -1.31034e-06)
(-1.28421e-08 2.21144e-09 -1.19421e-06)
(-6.55422e-09 -8.1522e-09 -1.13933e-06)
(-1.28276e-09 -4.70035e-09 -7.93407e-07)
(-6.67156e-09 -2.03505e-08 -6.97182e-07)
(-9.47002e-09 -3.40964e-08 -8.28921e-07)
(1.97222e-08 1.10139e-08 -7.85041e-07)
(1.4109e-08 2.08827e-08 -7.50978e-07)
(7.92275e-09 6.02103e-09 -8.85659e-07)
(-6.19799e-08 1.2629e-08 -8.92839e-07)
(-1.78658e-08 1.80909e-08 -6.74608e-07)
(1.09905e-07 1.01649e-08 -6.06281e-07)
(1.62809e-07 -1.34404e-08 -4.48657e-07)
(1.37794e-07 2.15932e-07 -7.44496e-07)
(4.79818e-08 6.88898e-08 -4.17229e-07)
(2.25064e-07 1.32931e-08 -5.88256e-07)
(8.38307e-08 5.35973e-08 -6.65566e-07)
(6.48347e-08 2.21537e-09 -7.44405e-07)
(4.69254e-08 -1.40131e-08 -1.03892e-06)
(-3.22889e-08 -9.50354e-09 -1.27595e-06)
(-9.12421e-08 1.24779e-08 -1.26892e-06)
(-1.28043e-07 1.72424e-08 -1.83729e-06)
(-6.21492e-08 -1.63999e-08 -1.86264e-06)
(4.86609e-08 -2.75072e-08 -1.5107e-06)
(-7.00839e-08 -3.99703e-07 -1.46276e-06)
(7.5023e-09 -1.54289e-08 -1.40388e-06)
(1.22298e-07 4.649e-07 -1.72936e-06)
(-1.09504e-07 -5.88069e-07 -2.11109e-06)
(9.55124e-07 6.25576e-07 -2.38158e-06)
(-1.14519e-06 -7.41926e-07 -2.82226e-06)
(1.36302e-06 8.95402e-07 -3.3806e-06)
(-1.63149e-06 -1.03651e-06 -3.92641e-06)
(-1.06772e-06 1.703e-06 -3.8325e-06)
(-1.36982e-06 -1.46854e-06 -3.82424e-06)
(5.77446e-08 9.98069e-10 -2.95838e-06)
(8.69898e-07 -1.44262e-06 -3.28262e-06)
(1.1309e-06 1.27292e-06 -3.28767e-06)
(-9.66644e-07 -1.05558e-06 -2.75002e-06)
(4.15621e-08 -1.99895e-09 -2.10424e-06)
(-7.44161e-07 1.20938e-06 -2.74691e-06)
(-1.83667e-08 7.58394e-09 -2.47429e-06)
(-6.52165e-09 -9.49085e-09 -2.35437e-06)
(-8.67759e-09 -9.87489e-09 -1.65436e-06)
(-1.23022e-08 5.11759e-09 -1.46152e-06)
(-3.05888e-08 -9.65508e-08 -1.72182e-06)
(-2.84975e-11 -4.50473e-08 -1.68694e-06)
(-7.32982e-09 -3.18835e-08 -1.6118e-06)
(-2.10985e-08 -6.471e-08 -1.18484e-06)
(2.68051e-09 -2.13239e-08 -1.12943e-06)
(1.25806e-10 -1.54452e-08 -1.08174e-06)
(9.59705e-08 3.24993e-07 -1.17824e-06)
(4.41581e-09 -9.37636e-09 -9.595e-07)
(-9.96378e-09 -9.75066e-09 -1.00383e-06)
(-1.78023e-09 3.18635e-08 -1.06411e-06)
(2.68548e-09 -6.56643e-08 -9.00403e-07)
(1.40775e-09 -2.02288e-08 -6.79051e-07)
(-6.34163e-09 1.21179e-07 -6.05288e-07)
(1.40628e-08 2.27735e-07 -5.85497e-07)
(-1.61665e-07 4.14105e-07 -5.55218e-07)
(-6.40206e-09 3.04683e-08 -6.17272e-07)
(-2.03438e-09 -4.13551e-09 -5.22451e-07)
(-7.4001e-10 1.58077e-08 -7.57333e-07)
(-2.14943e-09 2.57516e-09 -7.52004e-07)
(3.37145e-07 -3.0461e-07 -9.10405e-07)
(1.29192e-09 -9.63929e-09 -8.32445e-07)
(-4.16602e-07 3.39183e-07 -1.10827e-06)
(4.0479e-07 3.094e-07 -1.10801e-06)
(-4.87028e-07 -4.05331e-07 -1.31398e-06)
(-8.24044e-10 1.83028e-08 -9.99857e-07)
(5.00989e-07 -4.28017e-07 -1.31243e-06)
(2.53747e-09 -1.68121e-08 -1.19213e-06)
(-6.11651e-07 5.0709e-07 -1.5999e-06)
(5.97327e-07 4.71227e-07 -1.60015e-06)
(-7.15915e-07 -5.88524e-07 -1.91449e-06)
(1.91085e-10 2.87416e-08 -1.46065e-06)
(7.38626e-07 -6.23443e-07 -1.91439e-06)
(4.04585e-09 -2.50297e-08 -1.73035e-06)
(-8.8977e-07 7.41006e-07 -2.31503e-06)
(8.71831e-07 6.9536e-07 -2.31709e-06)
(-1.03006e-06 -8.5002e-07 -2.74309e-06)
(1.78455e-09 4.11624e-08 -2.10959e-06)
(1.06548e-06 -9.02398e-07 -2.74591e-06)
(6.32303e-09 -2.19859e-08 -2.46314e-06)
(-1.26466e-06 1.04682e-06 -3.27443e-06)
(1.24206e-06 9.87975e-07 -3.27959e-06)
(-1.43534e-06 -1.20472e-06 -3.81413e-06)
(4.60973e-09 5.60969e-08 -2.96415e-06)
(1.48999e-06 -1.28282e-06 -3.82352e-06)
(8.6109e-09 1.84915e-08 -3.4001e-06)
(-1.74409e-06 1.41568e-06 -4.4873e-06)
(1.71586e-06 1.34812e-06 -4.50215e-06)
(-1.92297e-06 -1.65913e-06 -5.12039e-06)
(9.8807e-09 7.62887e-08 -4.02692e-06)
(2.00408e-06 -1.77499e-06 -5.1479e-06)
(4.48336e-09 1.64339e-07 -4.53382e-06)
(-2.31343e-06 1.81212e-06 -5.9217e-06)
(2.27791e-06 1.76388e-06 -5.96255e-06)
(-2.43813e-06 -2.1763e-06 -6.63309e-06)
(1.59358e-08 1.07292e-07 -5.25352e-06)
(2.5338e-06 -2.32361e-06 -6.68783e-06)
(-1.97878e-08 5.86326e-07 -5.80272e-06)
(-2.89878e-06 2.16793e-06 -7.41335e-06)
(2.85817e-06 2.16768e-06 -7.48288e-06)
(-1.69457e-06 -3.30433e-07 -7.23675e-06)
(-3.6265e-09 3.80703e-08 -6.78127e-06)
(1.68069e-06 -3.98106e-07 -7.24e-06)
(-1.16248e-07 6.80604e-06 -6.39323e-06)
(-2.70849e-07 -3.29486e-06 -6.97251e-06)
(-2.22559e-07 -3.39885e-06 -6.72089e-06)
(-3.2282e-07 5.07678e-06 -6.10495e-06)
(-3.31282e-06 1.33727e-06 -8.40262e-06)
(7.11177e-07 4.82914e-07 -5.58817e-06)
(4.91803e-07 -4.06627e-06 -7.25915e-06)
(-2.59237e-07 -9.37349e-07 -5.55795e-06)
(-5.22555e-07 -5.66704e-07 -5.31958e-06)
(-1.84098e-07 1.79235e-06 -6.51695e-06)
(-2.796e-06 -1.87907e-06 -6.53591e-06)
(6.31522e-07 -3.57044e-08 -5.84211e-06)
(-1.06909e-06 7.66094e-08 -6.2425e-06)
(-1.48244e-06 -3.33111e-07 -6.29304e-06)
(-3.1897e-07 -3.79492e-07 -5.60943e-06)
(-4.47747e-07 -7.45964e-08 -4.96655e-06)
(-5.72201e-07 1.02342e-07 -4.86695e-06)
(-3.09569e-07 5.70222e-08 -3.62436e-06)
(-1.64169e-07 -2.06619e-08 -3.69996e-06)
(7.80592e-08 -6.42478e-08 -3.07833e-06)
(-9.34226e-08 -2.05531e-08 -2.66275e-06)
(-1.88687e-07 2.92993e-08 -2.61658e-06)
(-1.7713e-07 8.20902e-09 -2.59736e-06)
(-1.20094e-07 4.30698e-09 -1.82844e-06)
(-9.04074e-08 1.85174e-09 -1.267e-06)
(-6.84471e-08 -6.87357e-10 -8.93594e-07)
(-1.86166e-08 -2.94825e-09 -6.72879e-07)
(1.30256e-07 -1.10652e-08 -6.00282e-07)
(1.41203e-07 -5.52576e-09 -4.34066e-07)
(1.40866e-07 1.41561e-07 -6.06252e-07)
(1.62112e-07 -1.41571e-07 -5.36146e-07)
(2.10589e-07 1.43495e-09 -5.88586e-07)
(2.00861e-07 9.98776e-10 -5.92378e-07)
(1.49713e-07 -1.44053e-07 -5.72432e-07)
(1.50767e-07 1.41913e-07 -5.91378e-07)
(1.01604e-07 -3.31953e-10 -6.96067e-07)
(-8.95994e-08 5.67789e-10 -5.16967e-07)
(2.84537e-08 -5.79077e-10 -6.35262e-07)
(-1.02998e-08 -1.06609e-08 -6.14514e-07)
(-7.17387e-09 -6.76258e-09 -6.18989e-07)
(2.5841e-08 2.57438e-08 -6.409e-07)
(-7.80796e-08 2.03659e-09 -5.03972e-07)
(-1.70425e-10 2.95983e-08 -6.33187e-07)
(-7.79024e-11 -1.04065e-08 -6.20501e-07)
(-1.91514e-10 -1.28248e-08 -6.19869e-07)
(1.25342e-10 -2.57509e-10 -6.96401e-07)
(-4.96809e-08 4.83949e-08 -4.83076e-07)
(-5.70265e-08 -5.67544e-08 -4.87006e-07)
(-5.6664e-08 5.73368e-08 -4.86217e-07)
(-5.01429e-08 -4.78447e-08 -4.84234e-07)
(5.00051e-08 -4.85755e-08 -4.82794e-07)
(-4.14358e-08 -4.09219e-08 -4.80025e-07)
(1.80129e-09 1.79707e-09 -7.56233e-07)
(5.72134e-08 5.69727e-08 -4.85497e-07)
(-4.83081e-08 5.06451e-08 -4.83821e-07)
(-4.83729e-08 -5.02321e-08 -4.83948e-07)
(1.82185e-09 -1.40558e-09 -7.56485e-07)
(5.68791e-08 -5.70587e-08 -4.86244e-07)
(1.02068e-10 1.20074e-10 -7.01484e-07)
(2.27325e-10 2.62481e-10 -7.78652e-07)
(2.54455e-10 2.60566e-09 -7.7474e-07)
(2.30812e-10 3.78649e-09 -6.798e-07)
(-2.04871e-09 2.97377e-09 -6.7769e-07)
(1.78443e-09 -2.36011e-08 -6.3375e-07)
(-8.3646e-10 -8.43059e-09 -8.3607e-07)
(-3.61518e-10 -1.53331e-08 -1.20042e-06)
(8.1839e-10 -2.06096e-08 -1.74288e-06)
(3.09644e-09 -2.12673e-08 -2.47814e-06)
(7.5337e-09 -7.95802e-09 -3.41373e-06)
(7.0196e-09 -3.11524e-09 -3.24695e-06)
(-5.01129e-09 1.10484e-07 -2.88831e-06)
(-4.52225e-08 -2.37656e-07 -3.39468e-06)
(2.9165e-08 -9.89047e-08 -3.32859e-06)
(-3.00213e-08 -1.59256e-08 -3.17966e-06)
(2.12256e-07 9.93308e-07 -3.49566e-06)
(-2.98007e-07 -1.11387e-06 -4.10709e-06)
(1.90608e-06 1.24986e-06 -4.68478e-06)
(-2.25581e-06 -1.42408e-06 -5.22721e-06)
(2.61699e-06 1.67839e-06 -6.36464e-06)
(-2.86365e-08 -6.99809e-08 -5.23626e-06)
(-7.48179e-07 -1.55715e-06 -5.341e-06)
(-1.38751e-07 -4.86162e-08 -4.20754e-06)
(2.07765e-07 1.43517e-06 -4.80052e-06)
(3.11377e-09 -3.40689e-08 -3.93368e-06)
(5.05425e-08 -1.3269e-07 -4.22499e-06)
(8.63824e-08 2.22269e-08 -4.29343e-06)
(-2.91563e-07 1.58817e-08 -3.58664e-06)
(-5.20564e-07 3.04222e-08 -4.79378e-06)
(-1.00189e-06 3.54992e-08 -6.19425e-06)
(-2.31532e-06 -3.10635e-08 -7.8565e-06)
(-2.38196e-06 -3.81522e-07 -7.82487e-06)
(-5.48727e-06 1.31057e-06 -7.84835e-06)
(-2.26869e-06 -6.22905e-07 -6.74031e-06)
(-1.94119e-06 -2.22912e-06 -6.23416e-06)
(-3.81779e-08 -3.37937e-07 -6.55163e-06)
(-7.5246e-07 -4.00506e-07 -7.23186e-06)
(6.84699e-07 -5.13597e-06 -6.09107e-06)
(-4.77915e-06 -1.44964e-06 -6.93469e-06)
(-2.90807e-06 1.87975e-07 -9.9698e-06)
(-1.40695e-06 -2.15832e-06 -8.99978e-06)
(2.09757e-06 1.56298e-06 -8.8238e-06)
(1.67697e-07 7.73909e-08 -9.11826e-06)
(9.15436e-08 7.15372e-08 -5.82468e-06)
(-2.15132e-06 1.88909e-06 -7.40532e-06)
(2.26628e-06 1.58128e-06 -7.77029e-06)
(1.48589e-08 2.04653e-07 -9.32468e-06)
(-2.79808e-07 -1.8213e-07 -5.99396e-06)
(-2.34905e-06 2.07974e-06 -7.66298e-06)
(2.2744e-06 1.87092e-06 -7.80342e-06)
(4.57419e-09 2.17341e-07 -9.36917e-06)
(-3.09304e-07 -2.17339e-07 -6.01969e-06)
(-2.29329e-06 1.89195e-06 -7.5676e-06)
(2.26787e-06 2.12937e-06 -7.90277e-06)
(1.8697e-08 2.02889e-07 -9.34997e-06)
(-4.9762e-07 -4.88141e-07 -6.16297e-06)
(-2.18896e-06 1.57708e-06 -7.50376e-06)
(1.61873e-06 2.15903e-06 -8.42142e-06)
(-1.3788e-06 -7.68645e-07 -1.16686e-05)
(1.19129e-06 1.23393e-06 -9.24601e-06)
(9.08236e-07 -1.07217e-06 -9.04261e-06)
(2.58385e-06 1.1463e-06 -1.14589e-05)
(-1.21496e-06 -4.4982e-06 -1.12297e-05)
(-6.78281e-07 -2.43129e-06 -8.93332e-06)
(3.80806e-07 3.9487e-07 -6.54849e-06)
(1.47478e-06 -1.11231e-06 -9.21722e-06)
(-4.52291e-06 2.15971e-06 -8.17065e-06)
(-2.23636e-07 -1.3552e-07 -7.28212e-06)
(-2.62918e-06 -3.5052e-06 -7.71142e-06)
(2.51896e-06 1.99893e-06 -8.19178e-06)
(2.41146e-06 -3.79392e-08 -6.44105e-06)
(2.22362e-06 -2.36089e-06 -8.4985e-06)
(2.80871e-06 -2.34813e-06 -9.72875e-06)
(1.25595e-06 -3.3765e-06 -6.59532e-06)
(2.09651e-07 1.17089e-06 -7.93189e-06)
(1.02633e-06 -1.7772e-06 -6.41005e-06)
(1.50363e-06 -1.18691e-06 -6.65005e-06)
(2.37783e-06 1.86018e-06 -8.54207e-06)
(-8.51806e-07 -3.33109e-06 -7.33572e-06)
(2.10814e-07 -4.82498e-07 -5.54213e-06)
(1.42924e-06 2.13471e-06 -6.79848e-06)
(-9.47998e-07 -2.22905e-06 -5.86419e-06)
(1.31857e-08 -1.62034e-07 -4.37987e-06)
(9.64458e-07 1.73614e-06 -5.15133e-06)
(-7.35115e-07 -1.52622e-06 -4.4621e-06)
(-1.10939e-09 -8.41704e-08 -3.27749e-06)
(6.94771e-07 1.29171e-06 -3.79818e-06)
(-5.18669e-07 -1.06783e-06 -3.26564e-06)
(1.95582e-09 -6.38168e-08 -2.37555e-06)
(4.97753e-07 9.22223e-07 -2.71882e-06)
(-3.59451e-07 -7.45178e-07 -2.31281e-06)
(2.06566e-09 -4.84028e-08 -1.66651e-06)
(3.47687e-07 6.42881e-07 -1.89434e-06)
(-2.48323e-07 -5.11974e-07 -1.5963e-06)
(-3.18574e-10 -3.00267e-08 -1.14716e-06)
(2.32383e-07 4.43636e-07 -1.2967e-06)
(-1.82227e-07 -3.5047e-07 -1.09827e-06)
(-1.10386e-08 -3.78381e-09 -7.80298e-07)
(1.40451e-07 3.20076e-07 -9.05679e-07)