/*--------------------------------*- C++ -*----------------------------------*\
| =========                 |                                                 |
| \\      /  F ield         | OpenFOAM: The Open Source CFD Toolbox           |
|  \\    /   O peration     | Version:  2306                                  |
|   \\  /    A nd           | Website:  www.openfoam.com                      |
|    \\/     M anipulation  |                                                 |
\*---------------------------------------------------------------------------*/
FoamFile
{
    version     2.0;
    format      ascii;
    arch        "LSB;label=32;scalar=64";
    class       volVectorField;
    location    "2.3";
    object      flux;
}
// * * * * * * * * * * * * * * * * * * * * * * * * * * * * * * * * * * * * * //

dimensions      [0 1 -1 1 0 0 0];

internalField   nonuniform List<vector> 
5322
(
(-0.00100657 0.00260045 -0.00348827)
(2.28312e-05 0.000244221 -0.00356137)
(2.78797e-05 -1.78485e-05 -0.00367717)
(3.193e-06 -0.000109337 -0.00398617)
(-5.09518e-07 -6.0642e-05 -0.00395543)
(-6.67066e-07 -2.15614e-05 -0.00394447)
(3.56448e-08 -7.96066e-07 -0.00394149)
(5.43355e-07 1.92595e-05 -0.00394509)
(3.34017e-07 5.66339e-05 -0.0039568)
(-8.17433e-07 0.000103438 -0.00398943)
(-4.0276e-06 9.23049e-07 -0.00394406)
(4.40351e-05 -0.000770849 -0.00395531)
(6.78314e-05 -0.00085676 -0.00297669)
(-0.000934221 -0.000769042 -0.00410386)
(-2.47487e-05 -0.000667592 -0.00448743)
(0.00162589 0.00144479 -0.00358212)
(-0.00127759 0.00193254 -0.00423433)
(-2.01594e-05 -2.9743e-06 -0.00316999)
(-0.000974755 0.00133445 -0.00446316)
(0.00062829 -0.001582 -0.00450381)
(-0.000854217 0.00150455 -0.00453207)
(0.000742882 -0.00152838 -0.00451155)
(-0.000785741 0.00149922 -0.00451348)
(0.000789889 -0.00153428 -0.00453711)
(-0.000800068 0.00152886 -0.0045365)
(0.000768378 -0.00149971 -0.00451126)
(-0.000770012 0.00149815 -0.00451245)
(0.00079861 -0.0015293 -0.00453323)
(-0.000786669 0.00152492 -0.00453446)
(0.00078666 -0.00150613 -0.00451173)
(-0.000746454 0.00151539 -0.00451042)
(0.000847729 -0.00151528 -0.00451869)
(-0.000636861 0.00156457 -0.00448716)
(0.000970253 -0.00134397 -0.00441533)
(1.37018e-05 0.00128918 -0.00419765)
(0.00121737 -0.000644412 -0.00344599)
(0.000858209 0.00126584 -0.00391938)
(-0.000342286 0.00158909 -0.00399458)
(0.000961999 0.000793714 -0.00412337)
(-5.52522e-05 0.000859307 -0.00290366)
(-0.000912383 0.0011728 -0.00383456)
(0.000917483 0.000979518 -0.00395732)
(-5.55491e-05 0.00101385 -0.00285161)
(-0.000976157 0.00109471 -0.00396318)
(0.000970105 0.00104369 -0.00392444)
(-3.33683e-05 0.00103332 -0.00289897)
(-0.00103753 0.00106033 -0.00401807)
(0.000906072 0.00113278 -0.0037928)
(-2.28923e-05 0.00104949 -0.00286034)
(-0.00108742 0.00100229 -0.00392849)
(-0.00107278 0.00125737 -0.00439966)
(-0.00155801 0.000608878 -0.00315737)
(-0.000486604 0.000681543 -0.00429669)
(0.00104491 -0.00224669 -0.00403708)
(-6.66076e-05 -0.000122626 -0.00378541)
(-0.0017255 -0.00130003 -0.00383825)
(-4.89972e-05 0.000683281 -0.0045528)
(0.0016491 -0.00170493 -0.00377878)
(-1.97743e-05 -9.70768e-05 -0.00382504)
(-0.00164786 -0.00148178 -0.00384233)
(-7.09708e-06 0.000693802 -0.00460833)
(0.001606 -0.00167666 -0.0038297)
(-9.28178e-06 -8.66728e-05 -0.00382662)
(-0.00161859 -0.00147078 -0.00374758)
(-5.99209e-07 0.000696593 -0.00460508)
(0.00158138 -0.00173506 -0.00395842)
(2.00593e-05 -0.000111624 -0.00380836)
(-0.00160294 -0.0014224 -0.00355923)
(6.89686e-05 0.00070306 -0.00449568)
(0.00131262 -0.00190872 -0.00420233)
(5.20618e-05 6.72104e-05 -0.00315443)
(-0.0014014 0.00167745 -0.00491608)
(0.00158784 0.000934354 -0.00468203)
(-0.00164341 0.00130531 -0.00461547)
(0.00158204 0.000975045 -0.00466449)
(-0.00161107 0.00123491 -0.0046418)
(0.00161422 0.00103046 -0.0046394)
(-0.00161084 0.00122947 -0.00462306)
(0.00183377 0.00104393 -0.00468331)
(-0.00132115 0.00144422 -0.00443428)
(0.000647407 0.000131561 -0.00421809)
(-0.000855099 0.000485519 -0.00324217)
(-0.000552892 0.000733853 -0.00336064)
(0.000960133 0.00122165 -0.004543)
(9.98123e-05 -0.000104038 -0.00309848)
(-0.0005444 -0.000510537 -0.00411935)
(0.000635865 0.000145188 -0.00555884)
(-0.001712 0.00028555 -0.00339534)
(-0.000646262 0.000528762 -0.00348092)
(0.00204074 6.06059e-05 -0.00312826)
(-8.77248e-05 0.000138383 -0.00395606)
(3.82247e-05 2.55685e-05 -0.00353845)
(7.05275e-05 4.03676e-06 -0.00373341)
(0.0003185 4.74984e-06 -0.00370385)
(0.00146389 0.00177812 -0.0044963)
(-0.000340426 -0.000949259 -0.00389334)
(-4.16742e-05 2.85931e-05 -0.00388002)
(-0.000167897 0.000957049 -0.00394923)
(0.000655626 2.59724e-05 -0.00565743)
(-0.00151809 -2.49592e-05 -0.00330453)
(-0.00151971 0.0001305 -0.00333223)
(0.00339625 2.55616e-05 -0.00317938)
(-0.000165056 0.00101332 -0.00397914)
(0.00112911 -0.0017336 -0.0044434)
(0.00183785 0.00155133 -0.00483368)
(-2.29621e-05 2.08844e-05 -0.00376546)
(1.10773e-05 -2.96523e-05 -0.00399482)
(1.51666e-05 -5.52941e-06 -0.00400437)
(9.19229e-06 -9.09954e-07 -0.00399176)
(4.49773e-06 1.6642e-06 -0.00399773)
(1.77874e-06 1.89346e-06 -0.00399961)
(-4.9228e-07 2.32451e-06 -0.00399865)
(-4.73077e-06 5.30083e-06 -0.00399446)
(-1.15978e-05 1.06345e-05 -0.00400852)
(1.82342e-05 -1.80403e-05 -0.00461569)
(-6.14975e-06 4.72986e-06 -0.00457095)
(-0.000536818 0.000549502 -0.00319875)
(-0.000529661 -0.000226026 -0.00346625)
(5.60604e-05 -7.76533e-05 -0.00461687)
(0.000337586 -0.000424107 -0.00382026)
(1.91758e-05 0.000521622 -0.00338626)
(0.000515039 -0.000290322 -0.00411871)
(-0.00061605 -0.000565723 -0.00406097)
(-4.61578e-05 -0.000773848 -0.00572122)
(-0.000141883 -0.000874461 -0.00426182)
(0.000955018 -3.52286e-05 -0.00560215)
(0.000785602 0.000640954 -0.00402234)
(0.000218475 -0.000483664 -0.00420011)
(0.000614247 4.53224e-05 -0.005506)
(0.000397081 0.000528236 -0.00400536)
(0.000301955 -0.00052614 -0.00411072)
(0.000659483 2.21628e-05 -0.00555572)
(0.000332974 0.000549122 -0.00406741)
(0.000357222 -0.000563047 -0.00403416)
(0.000670963 -1.77885e-05 -0.00558111)
(0.000291505 0.000512833 -0.00412492)
(0.00056215 -0.00061519 -0.00405917)
(0.000762707 -4.89861e-05 -0.00573025)
(0.000864602 -0.00014198 -0.00426495)
(3.71406e-05 0.000941829 -0.00560254)
(-0.000633762 0.000780274 -0.00403235)
(3.49429e-05 -0.000511377 -0.0033978)
(0.000422166 0.000339046 -0.00382064)
(-0.000511461 0.000263557 -0.00341773)
(-0.000548727 -0.000539057 -0.00320469)
(7.8434e-05 5.80857e-05 -0.00461742)
(0.000226742 -0.000528175 -0.0034664)
(0.000124762 0.000414299 -0.00344203)
(-0.000429445 0.000425771 -0.00316214)
(-0.000471991 -0.000469475 -0.00318298)
(8.8305e-05 -7.09934e-06 -0.00460827)
(0.0001406 -0.000438095 -0.00344674)
(0.000169451 0.000439708 -0.00343342)
(-0.000465759 0.000474621 -0.00316394)
(-0.000441918 -0.000426383 -0.00319062)
(8.90373e-05 -1.433e-06 -0.00460708)
(9.24329e-05 -0.000407553 -0.00345366)
(0.000268292 0.000517383 -0.00341611)
(-0.0005112 -3.37499e-05 -0.00339662)
(0.000666989 -2.5523e-05 -0.00448674)
(-0.0014378 0.00162586 -0.00357685)
(-0.00192725 -0.00127424 -0.00423987)
(0.00166096 0.00140898 -0.00493026)
(-0.00194502 -0.00149616 -0.00481884)
(-8.14452e-05 5.05791e-05 -0.00305716)
(-0.00133834 -0.000965556 -0.00446401)
(1.073e-05 -2.06696e-05 -0.00317028)
(0.00130472 -8.83108e-06 -0.00429423)
(-0.000313361 -0.000180708 -0.00294027)
(0.00155507 0.00046649 -0.00397639)
(0.000770875 -0.000933366 -0.00410883)
(0.0011495 0.000928645 -0.00381674)
(-0.00172266 -0.00155885 -0.00395227)
(0.000672216 3.5558e-06 -0.00458735)
(-0.00148432 0.0015922 -0.0037733)
(0.000987454 -0.00157294 -0.00464694)
(0.00128739 0.00163763 -0.00461445)
(-0.00157457 -0.00167356 -0.00445641)
(3.52558e-05 6.96127e-06 -0.00372451)
(-0.00133869 0.00164873 -0.00444868)
(0.00117818 -0.00168911 -0.00455333)
(0.00146656 0.00175193 -0.00456273)
(-0.00155851 -0.00174653 -0.00452107)
(-9.72689e-06 6.50011e-06 -0.00378263)
(-0.00130624 0.00170775 -0.00452625)
(0.00124312 -0.00171937 -0.00454021)
(0.00151873 0.0017748 -0.00454598)
(-0.00155649 -0.00176737 -0.00453063)
(-3.11825e-06 3.98176e-06 -0.00379599)
(-0.00129882 0.0017262 -0.00453478)
(0.00126511 -0.00173047 -0.00453993)
(0.00153642 0.00178267 -0.00454389)
(-0.00156527 -0.00177501 -0.00453044)
(2.03331e-07 3.34808e-06 -0.00380132)
(-0.00130673 0.00173423 -0.00453623)
(0.00126298 -0.00173973 -0.00454195)
(0.0015394 0.00179173 -0.00454798)
(-0.0015879 -0.00177797 -0.00452478)
(1.73233e-06 4.35025e-06 -0.00380539)
(-0.00132899 0.0017375 -0.004534)
(0.00124237 -0.0017504 -0.00454609)
(0.00153114 0.00180353 -0.00455633)
(-0.00162262 -0.00177356 -0.00451506)
(4.06677e-06 5.73221e-06 -0.00380772)
(-0.00135728 0.00173072 -0.00452819)
(0.00120243 -0.00175529 -0.00454395)
(0.00150974 0.00180814 -0.00455945)
(-0.00165013 -0.0017369 -0.00450801)
(9.68401e-06 7.37269e-06 -0.00379523)
(-0.00136412 0.00168714 -0.00452668)
(0.00112912 -0.00173687 -0.00446338)
(0.00140958 0.00175136 -0.00447812)
(-0.000307797 -0.000949127 -0.00394035)
(0.00062635 -4.25791e-06 -0.0056606)
(-0.00150691 -6.99207e-05 -0.00330579)
(-0.00153672 2.9087e-05 -0.00329408)
(0.00341714 -2.82092e-05 -0.00319035)
(-0.000117394 -1.73706e-06 -0.00449382)
(-0.000128636 1.11254e-05 -0.00448149)
(7.89091e-05 1.47429e-05 -0.00373372)
(0.000343773 5.58072e-08 -0.00370484)
(0.00145442 0.00178198 -0.00448245)
(-0.000268766 -0.000944785 -0.00392426)
(-2.68003e-05 7.9969e-06 -0.00383245)
(-0.000299583 0.00112629 -0.00397419)
(0.000596633 -0.000152978 -0.00564051)
(-0.00153539 -4.49461e-05 -0.00332343)
(-0.00151015 3.71199e-05 -0.00329347)
(0.00339757 -5.54304e-05 -0.00319622)
(-0.000198951 0.000954235 -0.00392601)
(0.00112942 -0.0017548 -0.00446879)
(-4.29433e-05 1.01833e-05 -0.00387856)
(1.86611e-05 7.81574e-06 -0.00392405)
(1.81971e-05 2.19596e-05 -0.00399745)
(1.1709e-05 1.42103e-05 -0.00399105)
(6.09233e-06 7.58763e-06 -0.00399946)
(2.64057e-06 3.41086e-06 -0.00400119)
(-1.87989e-08 2.29989e-07 -0.00399962)
(-4.37051e-06 -4.69703e-06 -0.00399486)
(-1.05372e-05 -1.18332e-05 -0.00400837)
(1.81966e-05 1.75898e-05 -0.00461548)
(-5.63617e-06 -6.32973e-06 -0.00457208)
(0.000426577 -0.000442351 -0.00318465)
(-0.00047349 -0.000471155 -0.00317479)
(0.000471827 -0.000471368 -0.00317233)
(-0.000428574 -0.000443377 -0.00318446)
(8.60695e-07 9.05651e-05 -0.00460651)
(0.000429037 0.000156104 -0.00343316)
(-0.000405478 9.84167e-05 -0.00345245)
(-2.27758e-06 -0.000595675 -0.00347359)
(-0.000510731 0.000312452 -0.00410968)
(2.84266e-07 -0.000631693 -0.00577319)
(-0.000429137 0.000156469 -0.00343413)
(-3.3183e-07 9.07448e-05 -0.00460669)
(0.000404428 9.86048e-05 -0.00345139)
(1.58997e-05 -0.000624288 -0.00574081)
(0.000476988 0.000217398 -0.00418758)
(-3.8958e-05 0.000597318 -0.00548751)
(-0.000515723 0.000385612 -0.00400252)
(1.68731e-06 -0.000595441 -0.00347442)
(0.000510019 0.000313094 -0.00410931)
(-5.26769e-07 0.000648423 -0.00548874)
(-8.55696e-08 0.000905381 -0.00293034)
(0.000903386 0.000956282 -0.00393673)
(-0.0015528 -0.00156634 -0.00377563)
(0.00155093 -0.00156278 -0.00377125)
(-0.00153398 -0.00168194 -0.00395347)
(0.0016148 0.00122016 -0.00461106)
(-0.00165205 -0.0015137 -0.00445718)
(0.00172766 0.00138911 -0.00455998)
(-0.00172238 -0.00148731 -0.00452117)
(0.00174979 0.00143852 -0.00454468)
(-0.00174241 -0.00148145 -0.00453016)
(0.00175754 0.00145612 -0.00454353)
(-0.00175008 -0.00148823 -0.00453013)
(0.00176665 0.00145961 -0.00454858)
(-0.00175294 -0.0015096 -0.00452444)
(0.0017788 0.00145308 -0.00455858)
(-0.00174877 -0.0015451 -0.00451368)
(0.00178513 0.00143777 -0.00456455)
(-0.00171408 -0.00157906 -0.00450336)
(0.00175861 0.00140722 -0.00450617)
(-0.000942236 -0.000309898 -0.00388978)
(1.98059e-05 0.000667594 -0.00565812)
(0.000951055 -0.000212455 -0.00396437)
(2.56254e-05 -3.68405e-05 -0.00387859)
(-0.00171561 0.00121831 -0.00445297)
(0.00166825 -0.00145415 -0.00453749)
(8.64859e-06 1.40649e-05 -0.00379718)
(-0.00173401 0.00130374 -0.00454248)
(0.00170892 -0.00145934 -0.00453375)
(5.8743e-06 6.39003e-06 -0.00380946)
(-0.00172896 0.00134766 -0.004548)
(0.00171468 -0.0014339 -0.00453619)
(3.89503e-06 2.91188e-06 -0.00380662)
(-0.00171829 0.0013679 -0.00454469)
(0.00171102 -0.00141128 -0.0045366)
(2.7057e-06 6.37272e-07 -0.00380202)
(-0.00170908 0.00136847 -0.00454277)
(0.00170294 -0.00140162 -0.00453395)
(2.82174e-06 -3.2871e-06 -0.00379626)
(-0.00169832 0.00134522 -0.00454408)
(0.00168482 -0.00140498 -0.00452363)
(4.53382e-06 -1.04471e-05 -0.00378256)
(-0.00166928 0.0012764 -0.00455964)
(0.00162554 -0.00142916 -0.00444391)
(5.15597e-06 3.34173e-05 -0.00372348)
(-0.00155272 0.00106915 -0.00465326)
(9.14982e-07 -9.87361e-05 -0.00381703)
(0.00155219 0.00106821 -0.00464804)
(-0.00162655 -0.00143148 -0.00444891)
(-7.31038e-06 3.34803e-05 -0.00372351)
(-0.00161241 0.00122654 -0.00461577)
(0.00153165 -0.00167226 -0.0039525)
(-2.8786e-06 0.000671158 -0.00458631)
(-0.000911093 0.00110977 -0.00380844)
(-5.92048e-05 0.000829453 -0.00296605)
(0.000926739 0.000776368 -0.00411766)
(-0.00160812 -0.00147528 -0.00358285)
(0.00155266 0.000967779 -0.00466808)
(-0.00163507 -0.00137699 -0.00446624)
(0.00164243 0.00121774 -0.00455128)
(-0.00167187 -0.00134919 -0.00454756)
(0.00166988 0.00129284 -0.00454201)
(-0.00167764 -0.0013452 -0.00454702)
(0.00168187 0.00131688 -0.00454683)
(-0.00167958 -0.00135573 -0.0045426)
(0.00169606 0.001319 -0.00455445)
(-0.00167905 -0.00138392 -0.00453457)
(0.0017176 0.00130893 -0.00457191)
(-0.00166603 -0.00141774 -0.00450846)
(0.00173887 0.00128646 -0.00459415)
(-0.00160735 -0.00140405 -0.00446091)
(0.00172555 0.00122624 -0.00451749)
(-0.000928516 -0.000202365 -0.003911)
(-0.00019927 0.000483073 -0.0055756)
(0.000403846 -0.000553332 -0.00412877)
(5.09627e-05 -1.04395e-05 -0.00373707)
(-0.00160159 0.00168092 -0.00479468)
(0.00144159 -0.00205716 -0.00487153)
(2.02115e-05 3.54351e-05 -0.00367434)
(-0.00157842 0.00184725 -0.00488122)
(0.00152575 -0.00201069 -0.00486245)
(2.89933e-06 1.78064e-05 -0.00368839)
(-0.0015308 0.00188195 -0.00487855)
(0.00152464 -0.00193969 -0.00485722)
(-1.87845e-06 6.87341e-06 -0.00368169)
(-0.00151249 0.00188322 -0.00486607)
(0.0015142 -0.00190363 -0.00485511)
(-2.65294e-06 1.63514e-06 -0.00367612)
(-0.00150755 0.0018832 -0.00486357)
(0.0015115 -0.00189306 -0.00485857)
(-7.70127e-06 -3.721e-06 -0.00367293)
(-0.00150335 0.00188029 -0.00486626)
(0.00151408 -0.00189298 -0.00485819)
(-1.95144e-05 -7.836e-06 -0.00366544)
(-0.00148289 0.00184914 -0.00488613)
(0.00149427 -0.00190964 -0.00482051)
(-4.506e-05 4.25652e-05 -0.00361448)
(-0.00138045 0.0016444 -0.00492952)
(0.00126395 -0.0019014 -0.00423903)
(2.72486e-05 0.000667178 -0.00448521)
(-0.00045808 0.0015501 -0.00397496)
(0.000779608 0.00137748 -0.00419946)
(0.00128201 -0.000691629 -0.00366389)
(4.08784e-05 0.00131329 -0.00430824)
(0.000159533 -0.000311751 -0.00293192)
(-0.000234368 0.000247472 -0.0033463)
(0.000655915 0.00157359 -0.0038063)
(-0.00202328 -0.00136192 -0.00349417)
(0.00153516 0.0012706 -0.00477697)
(-0.00192506 -0.00119626 -0.00465212)
(-0.00129628 0.00191606 -0.00448173)
(-0.00160276 -0.001687 -0.00445151)
(4.16079e-05 -1.33635e-05 -0.00371434)
(0.00105544 -0.00188808 -0.00461687)
(0.00116734 0.00161042 -0.00468392)
(-0.00168068 -0.00164753 -0.00363685)
(0.000649967 4.84044e-05 -0.00460586)
(-0.00150832 0.00173456 -0.00404547)
(-0.000112086 7.7432e-05 -0.0038475)
(8.08113e-05 3.35987e-05 -0.00378195)
(-0.000610557 -0.000490887 -0.00557437)
(5.22358e-05 4.81333e-05 -0.00449798)
(-2.46545e-05 -3.94173e-05 -0.00426446)
(-0.000647769 2.57543e-05 -0.0057233)
(6.60699e-05 -9.41155e-06 -0.00410276)
(-0.000104594 -3.37033e-06 -0.0038248)
(-0.00153035 0.00158583 -0.00390622)
(-0.00165975 -0.00158894 -0.00379633)
(0.00119747 0.00159005 -0.00465297)
(-0.0015528 -0.00165294 -0.00444382)
(1.99597e-05 2.67813e-07 -0.00376315)
(0.00141667 0.00170525 -0.00456288)
(-0.00154424 -0.00171616 -0.00452359)
(0.00149124 0.00173575 -0.0045465)
(-0.00154543 -0.00173524 -0.0045341)
(1.09716e-05 1.2028e-06 -0.00374082)
(0.00151873 0.00174843 -0.00454648)
(-0.00155681 -0.00174185 -0.00453421)
(0.00152369 0.00176066 -0.00455158)
(-0.00158131 -0.00174234 -0.00452822)
(5.91731e-05 1.41692e-06 -0.00373034)
(0.00151272 0.00177457 -0.00456028)
(-0.00161033 -0.00173205 -0.0045165)
(0.00148207 0.00177909 -0.00456103)
(-0.00161482 -0.00168804 -0.004511)
(0.000333551 -2.73659e-06 -0.00370886)
(7.79998e-05 2.301e-06 -0.00373773)
(5.00548e-05 3.80668e-06 -0.00374353)
(5.26641e-05 1.27053e-05 -0.00374388)
(2.53502e-05 7.13317e-06 -0.00375115)
(6.21652e-05 4.60787e-06 -0.00373723)
(0.00156357 0.00179052 -0.00457492)
(-0.00165243 -0.00172952 -0.00451687)
(1.27548e-05 9.1325e-06 -0.00380211)
(-0.00134027 0.00204526 -0.00455576)
(0.00110411 -0.00202026 -0.00451015)
(0.00153928 0.00180973 -0.0045854)
(-0.00162077 -0.00167098 -0.00448718)
(2.89729e-05 1.75405e-05 -0.0037824)
(-0.00142301 0.00202963 -0.00457237)
(0.000989137 -0.00192883 -0.0043899)
(0.00197685 0.00122925 -0.00488766)
(-0.000232768 -0.00085522 -0.00375225)
(3.72457e-05 -0.00136588 -0.0055293)
(-0.00164776 -9.27823e-05 -0.00335984)
(-0.00152056 -2.10603e-05 -0.00321485)
(0.00321565 -0.000493729 -0.00326942)
(-0.000199565 -0.000126846 -0.00432602)
(5.35414e-05 3.82786e-05 -0.00351297)
(9.0116e-05 0.000908873 -0.00312708)
(-0.000981547 0.00118638 -0.00456989)
(0.000224642 9.4639e-05 -0.00306105)
(0.000771968 -0.0019332 -0.00440054)
(-0.000798978 0.00146892 -0.0045641)
(6.56714e-05 1.46166e-05 -0.00305759)
(0.000828804 -0.00163995 -0.00449515)
(-0.000751813 0.00149905 -0.00453898)
(1.04195e-05 -3.25293e-06 -0.00305088)
(0.000807012 -0.00154339 -0.00453125)
(-0.000771662 0.00151874 -0.00454112)
(-1.41855e-06 6.86855e-07 -0.00304959)
(0.000771904 -0.00149105 -0.00451833)
(-0.00074912 0.00151371 -0.00451316)
(-1.99738e-05 -1.06675e-05 -0.00305191)
(0.00080356 -0.0014901 -0.00453632)
(-0.000724665 0.00157286 -0.00451303)
(-4.91598e-05 -2.69245e-05 -0.00305755)
(0.000847503 -0.00142119 -0.00452698)
(-0.000570229 0.00160621 -0.00447997)
(-8.2271e-05 -0.000100999 -0.00305531)
(0.00100197 -0.00126799 -0.00448689)
(0.000380468 0.000411574 -0.00343837)
(0.000281387 0.000618809 -0.00331511)
(-7.39924e-05 -0.00076313 -0.00412992)
(-3.85298e-05 6.43004e-06 -0.00360572)
(0.000394444 0.00124656 -0.00401837)
(-0.000173436 -0.00106095 -0.004167)
(0.00177662 0.00124517 -0.0046462)
(-0.00189814 -0.00121734 -0.00469449)
(0.00185478 0.00123602 -0.0046519)
(-0.0018939 -0.00122298 -0.004679)
(-0.00122613 0.00198986 -0.00453742)
(-0.00158994 -0.00174421 -0.00454667)
(-3.7479e-06 -4.11799e-06 -0.00378831)
(0.00121364 -0.00199481 -0.00455422)
(0.00153129 0.00173832 -0.00455145)
(-0.00158895 -0.00173332 -0.00454125)
(-8.78201e-06 -1.04162e-05 -0.00377746)
(-0.00123117 0.00197224 -0.00452766)
(1.04054e-05 -1.01712e-07 -0.00375483)
(9.16241e-07 -4.43338e-06 -0.00355261)
(1.34182e-05 -2.9012e-06 -0.00356515)
(-1.28603e-06 -0.000114383 -0.00316962)
(2.64088e-05 2.59255e-05 -0.00369571)
(0.000101924 0.000159636 -0.00358745)
(9.43382e-05 0.000173398 -0.0034415)
(0.000171378 7.06103e-05 -0.00401201)
(-5.00411e-05 3.02129e-05 -0.00398284)
(2.71095e-05 9.98503e-05 -0.00394184)
(0.000713612 7.072e-05 -0.00397842)
(0.00113388 -9.10652e-05 -0.00308946)
(0.000945666 0.00147434 -0.00503423)
(0.000319637 0.000472647 -0.0027882)
(0.00143777 0.000102767 -0.00374286)
(0.000572316 0.000352823 -0.00397383)
(0.000268327 7.53263e-05 -0.00388345)
(7.9998e-05 2.26484e-05 -0.00389939)
(5.12632e-05 1.57911e-05 -0.00401182)
(-2.31031e-05 5.25159e-06 -0.00395136)
(-1.4678e-05 2.93588e-06 -0.00393884)
(1.47975e-05 4.15252e-06 -0.00401726)
(2.40316e-05 4.05518e-06 -0.00389875)
(-0.000225586 -0.00111921 -0.00416294)
(-3.47455e-06 1.21686e-06 -0.00365936)
(0.000260002 0.00114223 -0.00411916)
(-0.000240069 -0.00112905 -0.00413279)
(0.00187803 0.00123274 -0.00467016)
(-0.00190234 -0.00122615 -0.00466497)
(0.00188903 0.0012447 -0.00468187)
(-0.00193932 -0.00122827 -0.0046511)
(-0.00127202 0.00201944 -0.00454533)
(-0.00162881 -0.00174556 -0.00453688)
(4.45917e-06 3.25743e-06 -0.0037988)
(0.00120367 -0.00200427 -0.00454861)
(0.00157015 0.0017681 -0.0045604)
(-0.00160269 -0.00174755 -0.00454425)
(5.34231e-07 -2.23948e-07 -0.00379349)
(-0.00123845 0.00200142 -0.00454194)
(1.8033e-05 3.8925e-06 -0.00374465)
(7.97809e-06 4.02352e-06 -0.00355148)
(2.01918e-06 -4.6702e-07 -0.00355109)
(1.39009e-06 -1.15919e-05 -0.00315461)
(3.48764e-06 -5.47962e-06 -0.00368278)
(6.16804e-06 1.74101e-05 -0.00364261)
(9.80333e-06 1.26086e-05 -0.00348731)
(7.89625e-06 2.33518e-06 -0.00368268)
(2.10698e-05 5.39943e-05 -0.0035614)
(3.21013e-05 3.87144e-05 -0.00341945)
(0.000305847 0.00116719 -0.00410851)
(-5.34077e-06 5.68544e-06 -0.00365592)
(-1.98977e-06 -5.37434e-05 -0.00315841)
(-9.83116e-06 -4.66345e-06 -0.00398484)
(1.68621e-06 -7.80884e-05 -0.00400316)
(4.07646e-06 1.00959e-05 -0.00395867)
(-4.03888e-05 0.000775697 -0.00395789)
(9.37375e-05 0.00148122 -0.00373453)
(-0.00108081 0.00272271 -0.00362521)
(-2.70203e-06 0.000285378 -0.00359958)
(1.4855e-05 -4.14181e-05 -0.00316225)
(7.01285e-07 -1.92609e-05 -0.00394111)
(-1.46316e-05 -7.388e-05 -0.00388974)
(0.00165231 -0.00150412 -0.00445467)
(-2.8104e-07 6.58022e-06 -0.00375747)
(-0.00172693 0.00139956 -0.00456358)
(0.0016691 0.00127379 -0.00455553)
(-0.00168496 -0.0014057 -0.00452734)
(-5.92929e-06 -1.03629e-05 -0.0037832)
(0.00172489 -0.00148184 -0.00451986)
(1.95368e-08 1.09807e-05 -0.00373955)
(-0.00174954 0.00144751 -0.00454673)
(0.00169956 0.00134301 -0.00454208)
(-0.00170173 -0.00140092 -0.00453528)
(-2.4661e-06 -3.13494e-06 -0.00379727)
(0.00174661 -0.00148138 -0.00453122)
(9.9524e-07 9.52332e-06 -0.003733)
(-0.00175667 0.00146021 -0.0045439)
(0.0017124 0.0013684 -0.00454412)
(-0.00170773 -0.00141002 -0.00453446)
(1.17781e-07 8.87317e-07 -0.00380351)
(0.00175657 -0.00149394 -0.00453404)
(1.89495e-06 2.53241e-05 -0.00372841)
(-0.00176505 0.00145599 -0.00454647)
(0.00172452 0.00137217 -0.00455073)
(-0.00170825 -0.00143357 -0.00452799)
(2.58549e-06 3.41632e-06 -0.00380865)
(0.00176284 -0.00152319 -0.00453302)
(1.57237e-06 7.11274e-05 -0.00372192)
(-0.00177588 0.00143243 -0.00454942)
(0.00173862 0.00136199 -0.00456259)
(-0.00169812 -0.00146504 -0.00451345)
(6.20959e-06 7.24287e-06 -0.00381141)
(0.00176032 -0.00156422 -0.00453103)
(-3.38272e-06 0.000173052 -0.00371202)
(-0.00177793 0.00137826 -0.00453845)
(0.00174479 0.00133996 -0.00456954)
(-0.00165531 -0.00148035 -0.00450088)
(9.85494e-06 1.53835e-05 -0.00379589)
(0.00171523 -0.00157887 -0.00453309)
(-1.51245e-05 0.00038583 -0.00369088)
(-0.00174418 0.00128941 -0.00445164)
(0.0017195 0.00128932 -0.00449438)
(-0.000943615 -0.000248284 -0.00393395)
(-1.14361e-06 -3.58066e-05 -0.00387164)
(0.000936993 -0.000287493 -0.00393458)
(-5.74726e-05 0.00339344 -0.00321003)
(-0.000119555 -0.00151574 -0.00330616)
(-0.000125654 -0.00154765 -0.00317715)
(-0.000131137 0.00250705 -0.00301031)
(-0.00164368 0.000651785 -0.00431355)
(0.000410163 0.000270717 -0.00307317)
(0.000365097 -0.00234073 -0.00414835)
(-0.000139947 -0.000482438 -0.00341124)
(-0.000288442 -0.000282343 -0.00326866)
(-0.000143861 0.00120289 -0.00427121)
(-0.00187763 -0.00125575 -0.00437941)
(0.000395526 -2.19173e-05 -0.00368156)
(-0.000480208 2.61844e-05 -0.00388275)
(-0.000804929 -0.000157225 -0.00388254)
(-0.000295079 -0.000189125 -0.0039135)
(-0.000230929 -1.94239e-05 -0.00399391)
(-0.000241683 5.01597e-05 -0.00391663)
(-0.000102885 2.905e-05 -0.00392598)
(-4.59745e-05 1.18236e-05 -0.0040204)
(7.58399e-06 -1.54089e-05 -0.00390907)
(-1.84911e-06 6.95101e-06 -0.0040198)
(-3.72414e-05 1.10996e-05 -0.00393263)
(-4.65568e-05 3.27332e-06 -0.00390436)
(-2.72967e-05 3.6085e-07 -0.00391507)
(-5.30091e-05 -3.00452e-06 -0.00393137)
(-0.000105225 -1.03191e-05 -0.00396537)
(1.86177e-05 -1.98213e-05 -0.00391775)
(0.000838029 -6.87257e-05 -0.00392118)
(0.00098264 -3.68194e-05 -0.00298354)
(0.000963615 0.000958784 -0.00407498)
(0.00111025 -0.000959201 -0.00360677)
(0.00137303 1.15272e-05 -0.00375102)
(0.00130721 6.18454e-06 -0.00376857)
(0.00102243 -0.000974271 -0.00384114)
(0.00102917 0.000959948 -0.00396902)
(0.000671463 -2.27279e-06 -0.00459802)
(-0.000597147 3.98946e-06 -0.00346639)
(0.00019275 -4.34134e-06 -0.00427113)
(-7.00681e-05 -7.27171e-05 -0.00421744)
(-4.90737e-05 -4.6082e-05 -0.00426288)
(0.000174948 0.00017407 -0.00432581)
(-0.000520614 1.88675e-05 -0.00338893)
(-1.41975e-06 0.000200317 -0.00425742)
(-8.18486e-07 -7.10527e-05 -0.0042727)
(-1.68237e-06 -8.71225e-05 -0.00425243)
(1.32363e-07 9.64507e-08 -0.00460239)
(-0.000328867 0.000320871 -0.00311007)
(-0.000374671 -0.000372984 -0.00313053)
(-0.000371317 0.000374481 -0.003125)
(-0.000332894 -0.000319674 -0.00312003)
(0.000330009 -0.000323613 -0.00311)
(-0.000280139 -0.000276646 -0.00309899)
(1.0399e-05 1.03213e-05 -0.00460929)
(0.000373025 0.000371354 -0.00311999)
(-0.000321891 0.000334191 -0.00311671)
(-0.000323202 -0.000333589 -0.0031178)
(1.03171e-05 -9.94318e-06 -0.00460954)
(0.000371656 -0.000374164 -0.0031252)
(-2.09105e-08 -1.56399e-08 -0.00462892)
(6.03208e-08 5.86772e-08 -0.00463427)
(1.64798e-07 2.37698e-05 -0.00462465)
(1.84192e-07 6.74276e-05 -0.0041029)
(-9.8258e-06 6.03528e-05 -0.00409553)
(1.31673e-05 -0.000133778 -0.00380488)
(-6.73684e-06 2.61673e-06 -0.00375223)
(-3.70847e-06 6.89313e-07 -0.00374208)
(-4.7051e-07 3.95056e-06 -0.0037433)
(2.03659e-06 1.13069e-05 -0.00374363)
(5.08526e-06 2.74324e-05 -0.00374185)
(2.16614e-05 1.18034e-05 -0.00354895)
(1.60197e-05 9.60603e-05 -0.00315437)
(8.73557e-06 -7.54356e-05 -0.00366958)
(3.78775e-05 -8.35708e-06 -0.00362921)
(-1.0635e-05 5.46324e-05 -0.0034705)
(0.000226893 0.00120106 -0.0041411)
(-0.000323744 -0.00109579 -0.00411927)
(0.00191794 0.00126509 -0.00472277)
(-0.00197919 -0.00124641 -0.00457707)
(0.00196951 0.00127815 -0.00482041)
(-4.09874e-05 -3.06809e-05 -0.00369689)
(-0.000578597 -0.00113315 -0.00398404)
(-8.64956e-05 3.30114e-05 -0.00339865)
(0.000159387 0.00127007 -0.00417854)
(-1.71821e-05 -4.6488e-06 -0.00368999)
(-3.83047e-05 -5.55086e-05 -0.00391707)
(-2.01991e-05 1.14146e-05 -0.00399806)
(-0.000110393 7.87314e-06 -0.00389353)
(-0.000231086 1.56985e-05 -0.00388242)
(-0.000460854 1.85971e-05 -0.00388639)
(-0.00105313 -1.3376e-05 -0.00402946)
(-0.00107669 -0.000188052 -0.00397652)
(-0.0026833 0.000644509 -0.0039161)
(-0.0012668 -0.000287483 -0.00371919)
(-0.00110773 -0.00123654 -0.00356285)
(-3.77165e-05 -0.000156676 -0.00359601)
(-0.000436762 -0.000148832 -0.00373931)
(0.000343214 -0.00243563 -0.00295035)
(-0.00216823 -0.000671384 -0.00323077)
(-0.00129557 8.56223e-05 -0.00437043)
(-0.000605942 -0.000982428 -0.00395809)
(0.000982249 0.000726392 -0.00414593)
(7.91255e-05 3.3387e-05 -0.00425036)
(5.13034e-05 4.11599e-05 -0.00281528)
(-0.00102719 0.000879299 -0.00351409)
(0.0010871 0.000737613 -0.00370643)
(6.3878e-06 0.000103401 -0.00437966)
(-0.000128579 -8.24727e-05 -0.00291774)
(-0.00112853 0.000978109 -0.00366086)
(0.00109236 0.000879015 -0.00372694)
(1.90415e-06 0.00011148 -0.00440078)
(-0.00014337 -9.93928e-05 -0.00292948)
(-0.00110133 0.000887532 -0.00361485)
(0.00108873 0.00100246 -0.00377073)
(9.37411e-06 0.000103911 -0.00438443)
(-0.000235008 -0.000229125 -0.0029847)
(-0.00105084 0.000736178 -0.00357143)
(0.000776267 0.0010237 -0.00399157)
(-0.000618387 -0.000354654 -0.00545272)
(0.000506453 0.000533627 -0.00406956)
(0.000383915 -0.000465217 -0.00397103)
(0.00113355 0.00049726 -0.00499269)
(-0.000532631 -0.00196348 -0.00483948)
(-0.000308296 -0.00106645 -0.00394151)
(0.000168436 0.000192875 -0.00298266)
(0.000682532 -0.000484597 -0.00429688)
(-0.00223335 0.00105611 -0.00404016)
(-0.000124399 -6.36666e-05 -0.00378351)
(-0.00130767 -0.00173127 -0.00383026)
(0.00113913 0.000913302 -0.00380038)
(0.00104925 -1.82322e-05 -0.00286163)
(0.00100147 -0.00108461 -0.00392156)
(0.00125724 -0.00107217 -0.00440162)
(0.000608106 -0.00155883 -0.00315645)
(0.000138218 0.000656219 -0.0042209)
(0.000485837 -0.000857352 -0.003244)
(0.000734759 -0.000548941 -0.00336363)
(0.00121426 0.000953946 -0.00454458)
(-0.000565932 -0.00197943 -0.00431228)
(0.000116691 -0.000221938 -0.00349137)
(0.00090123 0.00139249 -0.00457576)
(-0.000776173 -0.00171462 -0.0044431)
(8.71273e-07 -4.38548e-05 -0.00358617)
(0.000788917 0.00149243 -0.00454907)
(-0.000800094 -0.00157068 -0.00449968)
(-1.00418e-05 3.5115e-06 -0.00359709)
(0.000765662 0.00150475 -0.00453564)
(-0.000782452 -0.0015145 -0.00451584)
(-5.88169e-06 7.84461e-06 -0.00360414)
(0.000761122 0.00149834 -0.00452775)
(-0.000774362 -0.00149969 -0.00452158)
(-5.15937e-06 8.57164e-06 -0.00360231)
(0.000758872 0.00149768 -0.0045269)
(-0.000779455 -0.00149639 -0.00452262)
(-1.09034e-05 2.3127e-05 -0.00360978)
(0.000733383 0.00150583 -0.00451972)
(-0.000822953 -0.00148703 -0.00452575)
(-6.49064e-05 9.21859e-05 -0.00354993)
(0.000622763 0.00155346 -0.00450559)
(-0.000953041 -0.00133251 -0.00446116)
(-0.000354945 0.000374943 -0.00346114)
(-1.53874e-05 0.00129252 -0.00429607)
(-0.00128381 -0.000721755 -0.00364518)
(-0.000794853 0.00137137 -0.0041942)
(0.000463775 0.0015489 -0.00397024)
(-0.00126484 -0.00192072 -0.00423759)
(0.00139938 0.00163903 -0.00493109)
(-0.00148511 -0.00192766 -0.00481766)
(4.17032e-05 4.42884e-05 -0.00361448)
(-0.00155636 0.000964653 -0.00467687)
(0.00160558 -0.00147599 -0.00357544)
(-2.43892e-05 0.000666437 -0.00448717)
(-0.000925798 0.000772629 -0.00411597)
(5.91282e-05 0.000836454 -0.00296666)
(0.000912468 0.00110967 -0.00380362)
(-0.000902635 0.00095437 -0.00393939)
(3.20257e-06 0.000670669 -0.00458737)
(5.33692e-06 0.00129213 -0.00375681)
(1.56698e-06 0.0007695 -0.00394632)
(1.25952e-06 -6.36621e-06 -0.00395136)
(1.94168e-06 -0.000112002 -0.00399229)
(1.79916e-06 -6.26886e-05 -0.00395635)
(5.8018e-07 -3.92571e-05 -0.00396654)
(1.29636e-06 -2.36177e-05 -0.00395236)
(3.46783e-06 -4.61312e-05 -0.003943)
(5.121e-06 -2.42943e-05 -0.0036804)
(1.53739e-05 6.98669e-06 -0.00357205)
(2.27953e-06 2.4798e-05 -0.00342832)
(0.000246385 0.00114716 -0.00415572)
(-0.000259104 -0.00111164 -0.00415823)
(-7.49792e-06 3.68658e-08 -0.00366987)
(-1.87722e-06 1.9548e-06 -0.0036608)
(1.04753e-05 4.59501e-07 -0.00390245)
(1.0668e-06 8.4442e-08 -0.00396841)
(0.00121337 -0.00199721 -0.00454798)