/*--------------------------------*- C++ -*----------------------------------*\
| =========                 |                                                 |
| \\      /  F ield         | OpenFOAM: The Open Source CFD Toolbox           |
|  \\    /   O peration     | Version:  2306                                  |
|   \\  /    A nd           | Website:  www.openfoam.com                      |
|    \\/     M anipulation  |                                                 |
\*---------------------------------------------------------------------------*/
FoamFile
{
    version     2.0;
    format      ascii;
    arch        "LSB;label=32;scalar=64";
    class       volScalarField;
    location    "2.3";
    object      gradTz;
}
// * * * * * * * * * * * * * * * * * * * * * * * * * * * * * * * * * * * * * //

dimensions      [0 -1 0 1 0 0 0];

internalField   nonuniform List<scalar> 
5322
(
-0.0620401
-0.057037
-0.0486517
-0.0526092
-0.0407931
-0.0306251
-0.0222454
-0.0156912
-0.0108763
-0.00766509
-0.00577492
-0.00516011
-0.00369521
-0.00520547
-0.00577327
-0.00484435
-0.00568114
-0.00447221
-0.00671293
-0.00771859
-0.00937702
-0.011039
-0.0135941
-0.0161994
-0.0197937
-0.0230993
-0.027811
-0.0323138
-0.0381817
-0.0432566
-0.0501407
-0.0562809
-0.063536
-0.068652
-0.0721352
-0.0633249
-0.0747506
-0.0738498
-0.076104
-0.055717
-0.0705382
-0.0728153
-0.0546286
-0.0728477
-0.0721142
-0.0555979
-0.0739123
-0.0698699
-0.055021
-0.0727554
-0.083109
-0.0563833
-0.0787705
-0.069777
-0.0622681
-0.0660426
-0.0817968
-0.0647771
-0.062393
-0.0658783
-0.0826526
-0.0656461
-0.0623793
-0.0642684
-0.0826569
-0.0679974
-0.0621697
-0.0611336
-0.0810912
-0.0725986
-0.0517733
-0.076554
-0.0728549
-0.0717706
-0.0724543
-0.0721065
-0.0720565
-0.0718734
-0.0730223
-0.069702
-0.067749
-0.0547554
-0.0567891
-0.0729852
-0.0471671
-0.0647282
-0.0943086
-0.0612636
-0.0614296
-0.0532946
-0.0658544
-0.0472361
-0.0497613
-0.0496613
-0.0639446
-0.0612205
-0.0580713
-0.0620344
-0.0958853
-0.0594671
-0.0601754
-0.0540464
-0.062529
-0.0632556
-0.0690614
-0.056493
-0.0593831
-0.0530954
-0.0412736
-0.0310744
-0.0225751
-0.0158846
-0.0109411
-0.00764357
-0.00658947
-0.00590077
-0.00422202
-0.00451893
-0.00638789
-0.00494627
-0.00429901
-0.00511227
-0.00504034
-0.00703271
-0.00527371
-0.00689259
-0.00499343
-0.00521446
-0.00678062
-0.00498226
-0.00511233
-0.00684625
-0.00506095
-0.00501964
-0.00687594
-0.00512682
-0.00504556
-0.00705639
-0.00528688
-0.0069058
-0.00501334
-0.0043175
-0.00495278
-0.00445969
-0.00423235
-0.00639468
-0.0045238
-0.00449865
-0.00418388
-0.00421592
-0.00641568
-0.00450524
-0.00448878
-0.00419176
-0.00421701
-0.00641079
-0.00450806
-0.0044545
-0.00431099
-0.00577778
-0.00484144
-0.00569405
-0.00743663
-0.00832885
-0.00487158
-0.00672494
-0.00447801
-0.00577456
-0.00376512
-0.00503906
-0.00521648
-0.00485777
-0.00534456
-0.00593215
-0.00511283
-0.00704694
-0.00698892
-0.00777883
-0.00600872
-0.00777218
-0.00945802
-0.00946614
-0.01121
-0.00854019
-0.0112296
-0.0136564
-0.0136645
-0.0163394
-0.0124719
-0.0163633
-0.019761
-0.0197719
-0.0234127
-0.0180058
-0.0234553
-0.0279375
-0.0279689
-0.032558
-0.0252895
-0.0326394
-0.0382869
-0.0383644
-0.0437577
-0.034352
-0.0438945
-0.0506218
-0.0507799
-0.0567667
-0.0448603
-0.0569961
-0.0635023
-0.0636649
-0.0619224
-0.0958907
-0.0594522
-0.0592665
-0.0542174
-0.0743224
-0.0741482
-0.0497648
-0.0497189
-0.0638107
-0.0617262
-0.0575349
-0.0627359
-0.0957795
-0.0598329
-0.0592065
-0.0543472
-0.0616697
-0.063568
-0.0580307
-0.0580822
-0.0529975
-0.0412877
-0.0311139
-0.0226051
-0.0159026
-0.0109508
-0.00764845
-0.00659321
-0.00590616
-0.0042124
-0.00420542
-0.00420244
-0.00420958
-0.00641022
-0.00448793
-0.00450738
-0.00442596
-0.0051135
-0.0074238
-0.00448878
-0.00641243
-0.00450934
-0.00737901
-0.00520646
-0.0067669
-0.00498338
-0.00442846
-0.00511439
-0.00676817
-0.0036482
-0.0050137
-0.0051159
-0.00511028
-0.00534737
-0.00698781
-0.00778199
-0.00946769
-0.011213
-0.0136707
-0.0163411
-0.0197837
-0.023415
-0.0279898
-0.0325595
-0.0384041
-0.0437469
-0.0508585
-0.0567075
-0.0641067
-0.0611746
-0.0959271
-0.0623042
-0.0580614
-0.0633643
-0.057153
-0.0448942
-0.0506214
-0.0439659
-0.0343779
-0.0383177
-0.0326675
-0.0253057
-0.0279656
-0.0234654
-0.0180148
-0.0197812
-0.0163658
-0.0124767
-0.0136731
-0.0112266
-0.00854258
-0.00947379
-0.00776563
-0.00600852
-0.0070576
-0.00544108
-0.0070525
-0.00777166
-0.00600965
-0.00699397
-0.00534862
-0.00593502
-0.00485153
-0.00369029
-0.00523433
-0.00485301
-0.00707065
-0.00777713
-0.00945482
-0.0112522
-0.0136807
-0.0163825
-0.0198375
-0.0234723
-0.0280992
-0.0326455
-0.0386491
-0.0437446
-0.051402
-0.0562501
-0.0644625
-0.0615808
-0.0948319
-0.0654253
-0.0562675
-0.0691126
-0.0618098
-0.0436242
-0.0549341
-0.0472452
-0.0333701
-0.0413612
-0.0349257
-0.0245087
-0.0300783
-0.0250268
-0.017428
-0.0212496
-0.0174427
-0.0120649
-0.0146592
-0.011959
-0.00826098
-0.0101267
-0.00833071
-0.00580781
-0.00743564
-0.00569713
-0.00578296
-0.00504393
-0.0052348
-0.00465391
-0.00578954
-0.00375814
-0.00429494
-0.00510854
-0.00473958
-0.007206
-0.00806653
-0.00779576
-0.00777005
-0.00597885
-0.00698157
-0.00710026
-0.00493103
-0.00594321
-0.0054569
-0.00546085
-0.00533826
-0.00713004
-0.0055711
-0.0052902
-0.00735909
-0.00580525
-0.00544944
-0.00529195
-0.00514586
-0.00705889
-0.00776824
-0.00713511
-0.00948028
-0.011228
-0.0136794
-0.0163655
-0.0148149
-0.0197975
-0.0234498
-0.0280106
-0.0326048
-0.0290813
-0.0384233
-0.0437928
-0.0508169
-0.0568163
-0.0497363
-0.0497792
-0.0388142
-0.0388535
-0.0292442
-0.0291669
-0.0386168
-0.0438377
-0.0343832
-0.0442962
-0.0505103
-0.0512022
-0.0565477
-0.0448433
-0.057824
-0.0627949
-0.0707885
-0.0599776
-0.0960792
-0.0611873
-0.0580709
-0.0560946
-0.072458
-0.0471912
-0.0428097
-0.0593695
-0.0369849
-0.0505156
-0.044691
-0.0278242
-0.0384076
-0.0326575
-0.0203305
-0.0281101
-0.023368
-0.0144521
-0.0197863
-0.0161424
-0.00999716
-0.0136653
-0.0110313
-0.00685075
-0.00934951
-0.00766297
-0.00485904
-0.00673946
-0.00483365
-0.00464765
-0.00619343
-0.00574665
-0.0068875
-0.00857739
-0.0096056
-0.0115878
-0.0139735
-0.0168486
-0.0163472
-0.0164035
-0.0124476
-0.0137054
-0.0136973
-0.0112583
-0.00852065
-0.0111995
-0.0102069
-0.00973783
-0.00678126
-0.00595882
-0.0070848
-0.00670975
-0.00641861
-0.00756973
-0.0076311
-0.00576588
-0.00518189
-0.00383468
-0.00636321
-0.00356606
-0.00502783
-0.0056886
-0.00636243
-0.00887965
-0.0109055
-0.0108455
-0.0157033
-0.01592
-0.0129119
-0.0125022
-0.011999
-0.0147809
-0.0180435
-0.0203554
-0.0241219
-0.028894
-0.033559
-0.0327564
-0.0326858
-0.0252853
-0.0280566
-0.0280997
-0.0235045
-0.0179849
-0.0234778
-0.0211478
-0.0201228
-0.0141398
-0.0124916
-0.0147164
-0.0144183
-0.0137761
-0.0101268
-0.00965328
-0.00924562
-0.0100704
-0.00820085
-0.00857972
-0.00909497
-0.00769576
-0.00580386
-0.0051734
-0.00500425
-0.00474546
-0.00527583
-0.00446539
-0.00647293
-0.00642738
-0.00778124
-0.00711492
-0.00947236
-0.00947017
-0.0112306
-0.00854579
-0.0112174
-0.0101892
-0.0136744
-0.0136765
-0.0163632
-0.0124842
-0.0163623
-0.0147893
-0.0197866
-0.0198042
-0.0234452
-0.0180307
-0.0234693
-0.0210525
-0.0279866
-0.0280307
-0.0325994
-0.0253346
-0.0326797
-0.0290607
-0.038353
-0.0384799
-0.043764
-0.0344181
-0.0439991
-0.0387506
-0.0506128
-0.0509619
-0.0566931
-0.0449019
-0.0571609
-0.0495959
-0.0633619
-0.0639563
-0.0618526
-0.0579595
-0.0618803
-0.054643
-0.0595941
-0.0574435
-0.052179
-0.0718173
-0.0477621
-0.062044
-0.0475039
-0.0454665
-0.0557004
-0.0558625
-0.0499326
-0.0533547
-0.0537867
-0.0479439
-0.0424491
-0.0415979
-0.0309775
-0.0316236
-0.0263105
-0.0227585
-0.022364
-0.0221997
-0.0156277
-0.010829
-0.00763755
-0.00575111
-0.00513061
-0.00370996
-0.00518164
-0.00458244
-0.00503065
-0.00506306
-0.00489258
-0.00505451
-0.00594929
-0.00441852
-0.00542959
-0.00525226
-0.0052905
-0.00547778
-0.00430746
-0.00541186
-0.00530342
-0.00529803
-0.00595214
-0.00412886
-0.00416245
-0.0041557
-0.00413875
-0.00412644
-0.00410278
-0.00646353
-0.00414955
-0.00413522
-0.00413631
-0.00646568
-0.00415593
-0.00599559
-0.00665515
-0.00662171
-0.00581025
-0.00579222
-0.00541667
-0.0071459
-0.01026
-0.0148964
-0.0211807
-0.0291772
-0.0277517
-0.0246864
-0.0290143
-0.0284495
-0.0271766
-0.0298774
-0.0351034
-0.0400409
-0.044677
-0.0543987
-0.0447544
-0.0456495
-0.0359619
-0.0410301
-0.0336212
-0.036111
-0.036696
-0.0306551
-0.0409725
-0.0529423
-0.0671495
-0.0668792
-0.0670799
-0.0576095
-0.0532834
-0.0559968
-0.0618108
-0.0520604
-0.0592709
-0.0852119
-0.0769212
-0.0754171
-0.0779338
-0.0497836
-0.0632934
-0.0664127
-0.0796981
-0.0512304
-0.0654956
-0.0666959
-0.0800784
-0.0514503
-0.0646803
-0.0675451
-0.0799142
-0.052675
-0.0641347
-0.071978
-0.0997313
-0.0790257
-0.0772873
-0.0979396
-0.0959802
-0.0763531
-0.05597
-0.0787796
-0.0698346
-0.0622403
-0.0659096
-0.0700152
-0.0550517
-0.0726368
-0.0831517
-0.0563703
-0.067794
-0.0547867
-0.056838
-0.0730092
-0.0626985
-0.0473686
-0.0581067
-0.0501213
-0.0374347
-0.0440284
-0.0381376
-0.0280127
-0.0324631
-0.0279114
-0.0203039
-0.0232378
-0.0197676
-0.0142437
-0.0161909
-0.0136436
-0.00980475
-0.0110829
-0.00938696
-0.00666922
-0.00774085
-0.00672478
-0.00487614
-0.00577907
-0.00462687
-0.00522156
-0.0050332
-0.00569296
-0.00744181
-0.008331
-0.00580712
-0.00708114
-0.00484167
-0.00578078
-0.00522787
-0.00368837
-0.00484347
-0.00501585
-0.00593451
-0.00504631
-0.00517347
-0.00580788
-0.00769626
-0.0109086
-0.0109178
-0.0157788
-0.0224325
-0.0209739
-0.0201894
-0.0193481
-0.0214456
-0.0257267
-0.0244771
-0.0173663
-0.0186569
-0.0189676
-0.0198336
-0.0198423
-0.0148482
-0.0163693
-0.0197715
-0.0180312
-0.0234711
-0.0279595
-0.0253297
-0.0326692
-0.0383147
-0.034397
-0.0439308
-0.0506112
-0.044865
-0.0569192
-0.047921
-0.0486019
-0.0599738
-0.0601126
-0.0531654
-0.0409619
-0.0306407
-0.022202
-0.0156412
-0.010845
-0.00765005
-0.0057725
-0.00515243
-0.00368927
-0.0050144
-0.00504031
-0.00515865
-0.00578175
-0.00766956
-0.0108806
-0.015709
-0.0223058
-0.0307818
-0.0411484
-0.0532978
-0.0682558
-0.0677883
-0.0553079
-0.105002
-0.0773365
-0.0741724
-0.0667512
-0.0800527
-0.0515186
-0.0516575
-0.0560964
-0.082677
-0.0533895
-0.0542068
-0.0552649
-0.0831364
-0.0536339
-0.0544459
-0.054898
-0.0829731
-0.0550985
-0.0560602
-0.0616799
-0.105446
-0.0800025
-0.0780518
-0.0784009
-0.0777243
-0.062412
-0.0583883
-0.0619408
-0.105057
-0.0612447
-0.0634304
-0.0825986
-0.0657368
-0.0623367
-0.0641613
-0.0732245
-0.0545923
-0.0724444
-0.0724856
-0.0557236
-0.0736369
-0.0649536
-0.0623612
-0.065641
-0.0721667
-0.0719238
-0.0725524
-0.0716015
-0.0624013
-0.0618955
-0.0673909
-0.0827491
-0.0710158
-0.056244
-0.0755959
-0.066462
-0.0562235
-0.0911212
-0.0491799
-0.064291
-0.0538374
-0.0627036
-0.0572915
-0.0450256
-0.0517748
-0.0455946
-0.0359819
-0.0396425
-0.0348734
-0.0264519
-0.0296792
-0.0253312
-0.0196367
-0.0211574
-0.0180926
-0.0134271
-0.014873
-0.0123907
-0.00944322
-0.0100813
-0.00859871
-0.00635342
-0.00697385
-0.00614077
-0.0046594
-0.00510791
-0.00354608
-0.00632618
-0.00457639
-0.00382911
-0.00703607
-0.00503773
-0.00526984
-0.00687839
-0.00499602
-0.00520034
-0.00676625
-0.00497078
-0.00511398
-0.00683743
-0.00506766
-0.00500021
-0.00686237
-0.00371627
-0.00488225
-0.00594594
-0.00512638
-0.00543917
-0.00703654
-0.00600311
-0.00776714
-0.00776526
-0.00710654
-0.00944227
-0.00824813
-0.0112256
-0.0119411
-0.0085757
-0.0146365
-0.00997511
-0.0173878
-0.0124561
-0.0211526
-0.0143734
-0.0249325
-0.0177271
-0.0298672
-0.0201739
-0.0346872
-0.0244545
-0.0407874
-0.0273671
-0.046716
-0.0326226
-0.0538308
-0.0359085
-0.0608268
-0.0420379
-0.0678745
-0.0452823
-0.0532888
-0.0645959
-0.0631092
-0.0500396
-0.0582898
-0.0429
-0.0516378
-0.0501244
-0.0387666
-0.044937
-0.0327823
-0.0390806
-0.0380541
-0.0290656
-0.0334032
-0.0241851
-0.028618
-0.0278707
-0.0210646
-0.024046
-0.0172343
-0.0202403
-0.0197595
-0.0148095
-0.016773
-0.0119604
-0.013991
-0.0136754
-0.0102029
-0.0115461
-0.00818949
-0.00963657
-0.00947478
-0.00712661
-0.00801619
-0.00574976
-0.00723508
-0.00697069
-0.005455
-0.00471292
-0.00428256
-0.00375509
-0.00503397
-0.00522141
-0.00462149
-0.00577093
-0.00485329
-0.005256
-0.00475129
-0.00500754
-0.00504306
-0.00499583
-0.00592898
-0.00511051
-0.0053296
-0.00540894
-0.00705969
-0.00580256
-0.0083176
-0.00596177
-0.0101156
-0.00684461
-0.00910259
-0.00648332
-0.00643854
-0.00699069
-0.00578478
-0.00736203
-0.00450269
-0.00640576
-0.00448675
-0.00441561
-0.00541701
-0.00528755
-0.00524388
-0.00529436
-0.00530531
-0.00742194
-0.00580831
-0.00544168
-0.00716313
-0.00716704
-0.00715177
-0.00948968
-0.00949012
-0.00712673
-0.00906124
-0.00647854
-0.00645316
-0.00699615
-0.00601519
-0.00779066
-0.00946061
-0.00854891
-0.0112306
-0.0136633
-0.0124865
-0.0135866
-0.0102866
-0.0102363
-0.0149327
-0.0212301
-0.0211299
-0.0212127
-0.0149249
-0.0102823
-0.010216
-0.0102521
-0.00714225
-0.00711151
-0.00776079
-0.0094548
-0.0101225
-0.0119506
-0.0146423
-0.0173998
-0.00998592
-0.0136491
-0.00857909
-0.0110767
-0.00685587
-0.00939167
-0.0059676
-0.00773672
-0.00665659
-0.00637816
-0.00859151
-0.00820334
-0.0101228
-0.011546
-0.0102127
-0.0136787
-0.0124134
-0.0163143
-0.0163634
-0.0148243
-0.0197087
-0.0179587
-0.0233897
-0.0233989
-0.0210275
-0.0277996
-0.0251546
-0.0325083
-0.0325236
-0.0289454
-0.0380707
-0.0329762
-0.0437088
-0.0501949
-0.0431051
-0.0568477
-0.0625933
-0.0536448
-0.0596305
-0.0532269
-0.0412991
-0.0310697
-0.0225673
-0.0158789
-0.0109371
-0.0076411
-0.00658676
-0.00589665
-0.00421069
-0.00418593
-0.00420836
-0.00449936
-0.00741053
-0.00580459
-0.00580154
-0.00734442
-0.00449553
-0.00441072
-0.00542917
-0.00528264
-0.00556511
-0.00528196
-0.00737196
-0.00578773
-0.00541232
-0.00707193
-0.00580975
-0.00647543
-0.00638768
-0.00662277
-0.00595068
-0.00413745
-0.00412484
-0.00646533
-0.00410175
-0.00417757
-0.00640961
-0.00638953
-0.00716034
-0.00677912
-0.00533337
-0.00711282
-0.00725735
-0.00546394
-0.00696751
-0.00597408
-0.00780304
-0.0077513
-0.00714839
-0.00945167
-0.00853682
-0.0112099
-0.0102091
-0.0136392
-0.0124489
-0.0163339
-0.0163199
-0.0147615
-0.0197417
-0.0173492
-0.0233928
-0.0278668
-0.0243252
-0.0325179
-0.0290969
-0.0211274
-0.0148682
-0.0102455
-0.00713769
-0.00638295
-0.00661903
-0.00594639
-0.00629588
-0.00768246
-0.00639515
-0.00647977
-0.00638736
-0.00629755
-0.00768068
-0.00715952
-0.00713485
-0.0102785
-0.0102142
-0.0149206
-0.0148144
-0.015738
-0.0223464
-0.0308485
-0.0309946
-0.0414607
-0.0387222
-0.0376949
-0.0493242
-0.0603331
-0.0517134
-0.0740298
-0.0564847
-0.107549
-0.0758973
-0.0744728
-0.0702599
-0.0861097
-0.0783456
-0.0811039
-0.0779492
-0.106885
-0.0749261
-0.0740684
-0.0666858
-0.0796995
-0.0513774
-0.0524124
-0.0567041
-0.0822282
-0.0531615
-0.0551117
-0.0560693
-0.0826802
-0.0534068
-0.0551903
-0.0558595
-0.0825105
-0.0549825
-0.056449
-0.0779615
-0.059393
-0.0497728
-0.0496817
-0.0570612
-0.0608276
-0.0434669
-0.0546242
-0.0364116
-0.0435711
-0.0526746
-0.0387795
-0.0498163
-0.0574616
-0.0499843
-0.062092
-0.0674127
-0.057043
-0.0534037
-0.045297
-0.0555211
-0.0539894
-0.069689
-0.0730953
-0.0717595
-0.0628483
-0.0498344
-0.0622301
-0.0551585
-0.0625226
-0.0497702
-0.0622226
-0.055211
-0.062598
-0.049922
-0.062298
-0.0730422
-0.0714271
-0.0625044
-0.0580239
-0.06957
-0.0831165
-0.0622849
-0.0787844
-0.0799896
-0.0768235
-0.0634004
-0.0612437
-0.0616661
-0.104506
-0.0619075
-0.0687016
-0.100942
-0.0806977
-0.0773316
-0.0623032
-0.0611432
-0.0781541
-0.0560632
-0.0558672
-0.0774457
-0.0583513
-0.0532895
-0.0531043
-0.0412826
-0.0310822
-0.0225805
-0.0158881
-0.0109431
-0.00764473
-0.00659023
-0.00590147
-0.00410211
-0.00412782
-0.00540708
-0.00524429
-0.0052847
-0.00676072
-0.00520339
-0.00431135
-0.00445614
-0.00494598
-0.00452018
-0.0043013
-0.00504135
-0.0070454
-0.00527627
-0.00711328
-0.00500043
-0.00688407
-0.00556675
-0.00547785
-0.005284
-0.00734743
-0.00449664
-0.00450134
-0.00641134
-0.00419897
-0.00419654
-0.00450264
-0.00449298
-0.0044065
-0.00507222
-0.0069245
-0.00507627
-0.00740887
-0.00580381
-0.0058011
-0.00533491
-0.00448274
-0.00527775
-0.00474416
-0.00501787
-0.00517208
-0.00580275
-0.00770263
-0.0109273
-0.0157751
-0.0223983
-0.0309081
-0.0413109
-0.0412508
-0.0535179
-0.0536091
-0.0677057
-0.0557787
-0.0590156
-0.0593223
-0.0959815
-0.068536
-0.0749218
-0.0772781
-0.10472
-0.05511
-0.0592343
-0.0593939
-0.0561615
-0.0601767
-0.0612166
-0.0943228
-0.0627027
-0.0647295
-0.0533238
-0.0614338
-0.0713757
-0.0590458
-0.0492635
-0.0534786
-0.0683626
-0.0681542
-0.0598613
-0.0601378
-0.0492065
-0.0369935
-0.0269053
-0.0190661
-0.0132088
-0.0130278
-0.00897984
-0.00898147
-0.00643094
-0.00648805
-0.00710752
-0.0101583
-0.0147126
-0.0209096
-0.0288482
-0.0384663
-0.0484202
-0.0477202
-0.0478679
-0.0362321
-0.0264874
-0.0187964
-0.0187757
-0.0130226
-0.0131944
-0.00910233
-0.00946667
-0.0101296
-0.011954
-0.0146525
-0.017405
-0.0120445
-0.0136774
-0.0112355
-0.00825434
-0.00943201
-0.00714276
-0.00711556
-0.00776098
-0.00579051
-0.00737009
-0.00498137
-0.00541659
-0.0063856
-0.00647663
-0.00638865
-0.00422329
-0.00418546
-0.00543501
-0.00528411
-0.00533041
-0.00540632
-0.00410118
-0.00646776
-0.00540678
-0.00541703
-0.00442263
-0.00547731
-0.0054077
-0.00523725
-0.0052764
-0.00529511
-0.00556136
-0.0052791
-0.00529606
-0.00543486
-0.00547716
-0.00421539
-0.00451935
-0.00494018
-0.00638299
-0.00445443
-0.00430448
-0.00647204
-0.00639137
-0.00662076
-0.00594544
-0.00629626
-0.00639313
-0.00716288
-0.00678135
-0.00597306
-0.00973295
-0.00858715
-0.0102532
-0.010189
-0.0148815
-0.01478
-0.0163635
-0.0197936
-0.0212047
-0.02494
-0.0299841
-0.0347048
-0.0244139
-0.0279768
-0.0234546
-0.0173814
-0.019816
-0.0141183
-0.0124734
-0.0200632
-0.017758
-0.0211524
-0.0210267
-0.0212082
-0.0210772
-0.0292075
-0.0290908
-0.0388151
-0.0387666
-0.0369176
-0.0331823
-0.0390609
-0.0376861
-0.0278271
-0.0198534
-0.0137746
-0.00943898
-0.00930764
-0.00915632
-0.0109918
-0.0135726
-0.0133322
-0.0159597
-0.0195512
-0.019194
-0.0159615
-0.0109933
-0.00931806
-0.00930565
-0.00915257
-0.00771328
-0.0110277
-0.0160092
-0.0227464
-0.0226813
-0.0273791
-0.0268554
-0.0312102
-0.037035
-0.0362841
-0.0414127
-0.0481575
-0.0490391
-0.0496588
-0.0739159
-0.0520905
-0.0779733
-0.0593181
-0.0580482
-0.0745885
-0.0548431
-0.0771044
-0.0789001
-0.081234
-0.0776829
-0.106096
-0.07489
-0.0687632
-0.0646109
-0.0818972
-0.0827854
-0.0612549
-0.0689349
-0.0794495
-0.0827308
-0.0765167
-0.0748656
-0.105481
-0.0780194
-0.0814805
-0.0817228
-0.0819338
-0.0815282
-0.0777064
-0.0819611
-0.0730796
-0.0675484
-0.0799175
-0.0527037
-0.0514258
-0.0558697
-0.0825323
-0.0549381
-0.0539546
-0.0549095
-0.0830171
-0.055004
-0.0542004
-0.0545321
-0.082817
-0.0562353
-0.0618008
-0.104824
-0.0822904
-0.0770214
-0.0636312
-0.0611682
-0.0774616
-0.0583203
-0.0532801
-0.0414179
-0.0311876
-0.0226619
-0.0159477
-0.010985
-0.00767766
-0.00930799
-0.00942962
-0.00825755
-0.0112316
-0.0136633
-0.012049
-0.0163552
-0.0197754
-0.0211903
-0.0249323
-0.0299648
-0.0346945
-0.0202259
-0.0279241
-0.0177423
-0.0232384
-0.0144013
-0.0197769
-0.0124623
-0.0161882
-0.0142265
-0.013613
-0.0180269
-0.0172642
-0.0212672
-0.0240346
-0.0210744
-0.0278636
-0.0250945
-0.0325659
-0.0325502
-0.0290377
-0.0378952
-0.0340702
-0.043689
-0.0386294
-0.0499396
-0.0444525
-0.0568266
-0.0569251
-0.0497812
-0.0626231
-0.0552026
-0.0623737
-0.0624634
-0.0498041
-0.0568176
-0.0568645
-0.0622967
-0.0551446
-0.058227
-0.0498905
-0.0387636
-0.0291547
-0.021176
-0.0149049
-0.0102733
-0.00972881
-0.0141117
-0.0148795
-0.0147728
-0.0211486
-0.021016
-0.0234401
-0.0279532
-0.0244215
-0.0326265
-0.0383133
-0.041112
-0.0467259
-0.0545858
-0.0608402
-0.0364066
-0.0501521
-0.0328152
-0.0440381
-0.0275469
-0.0381565
-0.0245167
-0.0324693
-0.0279856
-0.0267577
-0.0347765
-0.0330118
-0.0401817
-0.0446376
-0.0387808
-0.0498196
-0.0443457
-0.0574196
-0.0566333
-0.0498393
-0.0627959
-0.0548886
-0.0621201
-0.0673813
-0.0499929
-0.057029
-0.0533547
-0.0554806
-0.0539522
-0.0573257
-0.0532205
-0.0452471
-0.0473303
-0.058115
-0.0627345
-0.042298
-0.0491374
-0.0383508
-0.028757
-0.0208412
-0.0146623
-0.0101216
-0.00708107
-0.00526112
-0.0047472
-0.00522663
-0.00462641
-0.00354962
-0.00428924
-0.00511466
-0.00471346
-0.00633752
-0.00382482
-0.00456577
-0.00593965
-0.00544951
-0.00491699
-0.00544797
-0.00698609
-0.00600947
-0.00775328
-0.00713031
-0.0094488
-0.00853033
-0.0112182
-0.0111949
-0.0101783
-0.0136481
-0.0120327
-0.0163357
-0.0131838
-0.013016
-0.0136509
-0.00899267
-0.0094651
-0.0076484
-0.00764117
-0.0057442
-0.00513008
-0.00504355
-0.00517864
-0.0051788
-0.00503731
-0.0056922
-0.00467448
-0.00613774
-0.00576122
-0.00801492
-0.00713566
-0.00947567
-0.0085079
-0.0111986
-0.0112345
-0.0102298
-0.0136429
-0.0124566
-0.0163369
-0.0147965
-0.0197116
-0.0179495
-0.0233877
-0.0233851
-0.0209895
-0.0278011
-0.0261186
-0.0186908
-0.0197168
-0.0156214
-0.0156072
-0.0108349
-0.00906235
-0.00949417
-0.00648882
-0.00710665
-0.00576929
-0.00638505
-0.00699534
-0.00759337
-0.00764716
-0.00890308
-0.00966324
-0.01093
-0.00936939
-0.0124417
-0.01197
-0.0167861
-0.0148167
-0.019762
-0.0178991
-0.023385
-0.0234301
-0.0210677
-0.0277843
-0.0251652
-0.03252
-0.0289847
-0.0379406
-0.0340676
-0.0436866
-0.0437393
-0.0385975
-0.0499342
-0.0387171
-0.0369745
-0.0273238
-0.0268382
-0.0226693
-0.0159529
-0.0109885
-0.00768038
-0.00915333
-0.00930422
-0.013566
-0.0137579
-0.0102777
-0.0149122
-0.0211866
-0.0277564
-0.0273625
-0.0195396
-0.019186
-0.0133271
-0.0135745
-0.0093124
-0.00854146
-0.00947369
-0.0071311
-0.00946199
-0.0112223
-0.0102131
-0.0136486
-0.0136612
-0.0112156
-0.0112205
-0.0102323
-0.0136487
-0.0136834
-0.0112371
-0.00949199
-0.00714835
-0.00945763
-0.00778477
-0.00776004
-0.00776734
-0.00777259
-0.00714284
-0.00947337
-0.0094613
-0.00853886
-0.0112073
-0.0102255
-0.0136631
-0.0136513
-0.0124602
-0.0163279
-0.0148213
-0.0197445
-0.0197183
-0.0197154
-0.0197315
-0.014801
-0.016348
-0.0163408
-0.0124634
-0.016343
-0.0148294
-0.0197145
-0.0197724
-0.0163664
-0.012424
-0.0136815
-0.0140168
-0.0102129
-0.0112036
-0.00851471
-0.00947716
-0.00967257
-0.00713481
-0.00780462
-0.0077545
-0.00710107
-0.00544638
-0.00699127
-0.00601363
-0.00705536
-0.00544051
-0.00704355
-0.00601149
-0.00699762
-0.00544228
-0.0070851
-0.00775599
-0.00778686
-0.00597215
-0.00648778
-0.00571882
-0.00512138
-0.00372629
-0.00515603
-0.00491163
-0.00503121
-0.00504092
-0.00371007
-0.00511729
-0.00507009
-0.00490507
-0.00516643
-0.00372815
-0.0068905
-0.0051194
-0.00499383
-0.0044091
-0.00594623
-0.00528616
-0.00512873
-0.00513734
-0.00527384
-0.00492794
-0.00543362
-0.00593406
-0.00429497
-0.00511422
-0.00688349
-0.00499487
-0.00734197
-0.00579811
-0.00715918
-0.00716158
-0.0102778
-0.0149135
-0.0195454
-0.0179679
-0.0233996
-0.0210312
-0.0277954
-0.0278226
-0.0277895
-0.0279022
-0.0210738
-0.0234093
-0.0234332
-0.0179154
-0.0197661
-0.0202975
-0.0148178
-0.0163237
-0.0167915
-0.011983
-0.0124556
-0.0148471
-0.0136343
-0.018046
-0.0212947
-0.019432
-0.0254848
-0.0297025
-0.0267959
-0.034814
-0.0402255
-0.0357388
-0.0454576
-0.0462377
-0.0416372
-0.0352782
-0.031219
-0.0259996
-0.0226127
-0.0185617
-0.0158903
-0.0129083
-0.0109408
-0.00937993
-0.0101406
-0.0115475
-0.0082127
-0.00859768
-0.00700575
-0.00639034
-0.00759911
-0.00890851
-0.00638686
-0.00614268
-0.00576772
-0.00726097
-0.00546193
-0.00696885
-0.00597836
-0.00649589
-0.00576087
-0.00517974
-0.00382928
-0.00457439
-0.00633658
-0.00355125
-0.00512049
-0.00467664
-0.0056918
-0.00503801
-0.00429212
-0.00471541
-0.00544714
-0.00492506
-0.00593943
-0.00504319
-0.00512365
-0.00572423
-0.00761561
-0.0076367
-0.0108484
-0.0156629
-0.0222202
-0.0210758
-0.0278699
-0.0286989
-0.0240442
-0.0233994
-0.0188583
-0.0131289
-0.00907702
-0.00904354
-0.0108038
-0.0155632
-0.0220429
-0.0263856
-0.025118
-0.032551
-0.0290452
-0.0378946
-0.0381396
-0.037996
-0.0394099
-0.0290746
-0.0325875
-0.0333956
-0.0242714
-0.0202317
-0.0267375
-0.0264305
-0.0361093
-0.0365547
-0.0383381
-0.0411398
-0.0467328
-0.032841
-0.0367795
-0.02764
-0.0245368
-0.0291371
-0.029019
-0.0326522
-0.0387498
-0.0387244
-0.0439373
-0.0331937
-0.0375825
-0.0291685
-0.0387784
-0.0489776
-0.0481845
-0.0370223
-0.0362828
-0.026846
-0.0273593
-0.0311972
-0.0312908
-0.0312115
-0.022683
-0.0195702
-0.0195405
-0.0135674
-0.0133258
-0.0135677
-0.0137536
-0.0198093
-0.0173879
-0.0190268
-0.0132055
-0.0130445
-0.0130802
-0.0131425
-0.00901759
-0.00899534
-0.00643793
-0.0064885
-0.00500967
-0.00910788
-0.0188675
-0.0188072
-0.026472
-0.0265735
-0.0267544
-0.0363083
-0.0361593
-0.0365948
-0.0267659
-0.0438899
-0.0507116
-0.0434803
-0.0569762
-0.0484743
-0.0477793
-0.059996
-0.060189
-0.0590006
-0.071481
-0.096036
-0.0978942
-0.0559629
-0.0719584
-0.0997498
-0.0790082
-0.0624284
-0.0777025
-0.0785602
-0.0635279
-0.0616541
-0.105623
-0.0805216
-0.0779106
-0.101294
-0.0866458
-0.0867327
-0.081744
-0.0789179
-0.0550797
-0.0772919
-0.0581595
-0.0531694
-0.0414132
-0.0370644
-0.0274037
-0.0273617
-0.0292104
-0.0291308
-0.0290022
-0.038741
-0.0387031
-0.0367644
-0.0276269
-0.0200534
-0.0286749
-0.0333816
-0.0290725
-0.0379898
-0.0340035
-0.0439299
-0.0436699
-0.0386916
-0.0498218
-0.0444267
-0.0499551
-0.0387517
-0.0291462
-0.0273457
-0.0277461
-0.0375694
-0.033204
-0.0370192
-0.0362784
-0.0268426
-0.0191838
-0.0195355
-0.0149035
-0.010271
-0.00715655
-0.00947912
-0.0090161
-0.0112158
-0.00645731
-0.00778443
-0.00706112
-0.00506956
-0.00529023
-0.00504802
-0.00367755
-0.00514427
-0.00576463
-0.0130457
-0.0131057
-0.0136818
-0.0108601
-0.0128993
-0.0148268
-0.0158744
-0.0156785
-0.0185482
-0.0202797
-0.0225902
-0.019405
-0.0254568
-0.0242444
-0.0296658
-0.0259801
-0.0311882
-0.0306532
-0.0222423
-0.0188235
-0.019767
-0.0187296
-0.0197289
-0.0221064
-0.0263357
-0.0278921
-0.0261716
-0.0325218
-0.0304201
-0.0356494
-0.0381217
-0.0352537
-0.0393791
-0.0415997
-0.0356916
-0.0454142
-0.0435342
-0.0526405
-0.0462127
-0.0409046
-0.052744
-0.0630707
-0.062725
-0.0625247
-0.0674343
-0.0640416
-0.0576456
-0.0465226
-0.050283
-0.0405069
-0.0521835
-0.0625176
-0.068546
-0.0651815
-0.0571612
-0.0459483
-0.0353321
-0.0437246
-0.0379615
-0.030443
-0.0221241
-0.040539
-0.0522563
-0.0626711
-0.068883
-0.0652352
-0.0571596
-0.0458967
-0.0352671
-0.0379398
-0.0358397
-0.026497
-0.0189448
-0.0146342
-0.0101097
-0.00707191
-0.00662473
-0.00988194
-0.0207774
-0.0285875
-0.0380164
-0.0467597
-0.0579152
-0.0630327
-0.0701127
-0.0649272
-0.0526973
-0.0588462
-0.0635919
-0.0625221
-0.0523283
-0.0519792
-0.0403643
-0.0303093
-0.0220214
-0.0155449
-0.0107892
-0.00760547
-0.00760563
-0.00572726
-0.00647332
-0.00647067
-0.0050674
-0.00594434
-0.00503539
-0.00517405
-0.00574956
-0.00761959
-0.00906906
-0.00850717
-0.0111839
-0.011237
-0.010273
-0.00930979
-0.00915036
-0.0062949
-0.00929801
-0.0094252
-0.00677524
-0.00532951
-0.00710728
-0.00743282
-0.00486105
-0.00972468
-0.0137482
-0.0135709
-0.0133223
-0.0135544
-0.0195173
-0.0191789
-0.0195408
-0.0149061
-0.0211799
-0.0211862
-0.0291631
-0.0370089
-0.034086
-0.0379754
-0.0289856
-0.0379178
-0.0437483
-0.0386241
-0.0498655
-0.0499837
-0.0436624
-0.0437696
-0.038696
-0.0498014
-0.0503114
-0.0436614
-0.0340348
-0.04396
-0.0446546
-0.0330477
-0.0275538
-0.0357168
-0.0306227
-0.0408635
-0.0526841
-0.053251
-0.0573356
-0.0627212
-0.0625375
-0.0630033
-0.0674583
-0.0640336
-0.0577129
-0.0466034
-0.0403886
-0.0303323
-0.0354361
-0.0262517
-0.0325521
-0.0325143
-0.0325468
-0.032517
-0.029048
-0.0380295
-0.0379429
-0.0340873
-0.0437033
-0.0387278
-0.0500664
-0.0499436
-0.0444644
-0.0568042
-0.0570398
-0.056902
-0.0444033
-0.0489951
-0.0482286
-0.0414282
-0.0415097
-0.0471292
-0.0531688
-0.0497847
-0.0497621
-0.074285
-0.0543498
-0.0515809
-0.0771326
-0.078815
-0.0817137
-0.0777354
-0.0816217
-0.0819715
-0.0784611
-0.0541211
-0.0762104
-0.0564488
-0.0749503
-0.0752791
-0.0749567
-0.0751595
-0.0743736
-0.0640971
-0.0809818
-0.105524
-0.0562887
-0.0783313
-0.0858219
-0.0815102
-0.0867638
-0.0813169
-0.0773026
-0.102576
-0.0809746
-0.0564438
-0.0618878
-0.105122
-0.0613032
-0.0773149
-0.0561913
-0.0755572
-0.0565773
-0.0532848
-0.0471619
-0.0481793
-0.0481888
-0.0489637
-0.0481713
-0.0369924
-0.0481831
-0.0472047
-0.0362837
-0.0370151
-0.0273557
-0.0277312
-0.0291665
-0.0388059
-0.038768
-0.0481865
-0.0499002
-0.0472494
-0.0423234
-0.0691159
-0.0471763
-0.060153
-0.0631821
-0.0564533
-0.0599245
-0.0658509
-0.0743687
-0.0541072
-0.0514074
-0.0773123
-0.0581642
-0.0565809
-0.0751548
-0.0539456
-0.0764022
-0.0785632
-0.0788889
-0.0819046
-0.0732208
-0.0809475
-0.105458
-0.0783226
-0.0815333
-0.0817555
-0.0818695
-0.0820889
-0.0785579
-0.0544509
-0.0764013
-0.0804969
-0.0819208
-0.0804401
-0.0786731
-0.0542964
-0.076597
-0.0567124
-0.0755521
-0.0757435
-0.068094
-0.0499258
-0.0498992
-0.0679547
-0.0676286
-0.0474332
-0.0500342
-0.0499058
-0.0582346
-0.0675983
-0.06787
-0.06814
-0.0627999
-0.0746491
-0.0567593
-0.0457453
-0.0406887
-0.0305479
-0.0221809
-0.0156364
-0.0108267
-0.0131206
-0.016364
-0.0163021
-0.0124156
-0.0141095
-0.0198003
-0.0179021
-0.0233633
-0.0234369
-0.0210677
-0.0278555
-0.0278029
-0.0233882
-0.0179639
-0.0234122
-0.0187829
-0.0155399
-0.0107916
-0.0130864
-0.0130834
-0.00904098
-0.0187877
-0.0220021
-0.030272
-0.0403049
-0.0460679
-0.0569348
-0.0567343
-0.0569277
-0.0460336
-0.03541
-0.0262399
-0.0251732
-0.0263391
-0.0325829
-0.0325085
-0.0250973
-0.0276201
-0.0200466
-0.0375535
-0.034008
-0.0437349
-0.0438104
-0.0355844
-0.0350649
-0.0259223
-0.0185282
-0.0128876
-0.0088887
-0.00637104
-0.00502826
-0.00568161
-0.0075846
-0.0109286
-0.0158688
-0.018843
-0.0225881
-0.0311269
-0.0414633
-0.0463441
-0.0575347
-0.0550536
-0.057264
-0.051906
-0.0520187
-0.0623389
-0.0684786
-0.0651459
-0.057266
-0.0622472
-0.0683111
-0.0653686
-0.0622375
-0.0693832
-0.0651731
-0.0692146
-0.0367725
-0.0444405
-0.0565953
-0.0443799
-0.0529962
-0.0634685
-0.0772972
-0.080542
-0.0809659
-0.0858094
-0.0813008
-0.0867362
-0.086728
-0.0866226
-0.0806203
-0.0817663
-0.0864538
-0.102463
-0.0824746
-0.0868518
-0.0932428
-0.0915324
-0.103009
-0.10306
-0.101478
-0.102747
-0.102611
-0.0685165