/*--------------------------------*- C++ -*----------------------------------*\
| =========                 |                                                 |
| \\      /  F ield         | OpenFOAM: The Open Source CFD Toolbox           |
|  \\    /   O peration     | Version:  2306                                  |
|   \\  /    A nd           | Website:  www.openfoam.com                      |
|    \\/     M anipulation  |                                                 |
\*---------------------------------------------------------------------------*/
FoamFile
{
    version     2.0;
    format      ascii;
    arch        "LSB;label=32;scalar=64";
    class       volScalarField;
    location    "2.3";
    object      gradTz;
}
// * * * * * * * * * * * * * * * * * * * * * * * * * * * * * * * * * * * * * //

dimensions      [0 -1 0 1 0 0 0];

internalField   nonuniform List<scalar> 
5322
(
-0.872067
-0.890344
-0.919291
-0.996543
-0.988857
-0.986118
-0.985373
-0.986273
-0.989199
-0.997357
-0.986016
-0.988828
-0.744173
-1.02597
-1.12186
-0.895531
-1.05858
-0.792496
-1.11579
-1.12595
-1.13302
-1.12789
-1.12837
-1.13428
-1.13412
-1.12782
-1.12811
-1.13331
-1.13361
-1.12793
-1.12761
-1.12967
-1.12179
-1.10383
-1.04941
-0.861497
-0.979846
-0.998644
-1.03084
-0.725916
-0.95864
-0.98933
-0.712903
-0.990795
-0.981109
-0.724743
-1.00452
-0.948201
-0.715085
-0.982123
-1.09991
-0.789342
-1.07417
-1.00927
-0.946352
-0.959562
-1.1382
-0.944696
-0.956261
-0.960583
-1.15208
-0.957426
-0.956654
-0.936894
-1.15127
-0.989606
-0.95209
-0.889807
-1.12392
-1.05058
-0.788608
-1.22902
-1.17051
-1.15387
-1.16612
-1.16045
-1.15985
-1.15576
-1.17083
-1.10857
-1.05452
-0.810543
-0.84016
-1.13575
-0.774621
-1.02984
-1.38971
-0.848835
-0.87023
-0.782066
-0.989014
-0.884613
-0.933353
-0.925963
-1.12408
-0.973335
-0.970005
-0.987307
-1.41436
-0.826132
-0.833057
-0.794846
-0.994784
-1.11085
-1.20842
-0.941365
-0.998704
-1.00109
-0.997941
-0.999433
-0.999902
-0.999663
-0.998615
-1.00213
-1.15392
-1.14274
-0.799688
-0.866562
-1.15422
-0.955066
-0.846566
-1.02968
-1.01524
-1.4303
-1.06545
-1.40054
-1.00559
-1.05003
-1.3765
-1.00134
-1.02768
-1.38893
-1.01685
-1.00854
-1.39528
-1.03123
-1.01479
-1.43256
-1.06624
-1.40063
-1.00809
-0.849449
-0.955159
-0.854433
-0.801173
-1.15435
-0.866601
-0.860508
-0.790536
-0.795745
-1.15207
-0.861685
-0.858355
-0.790985
-0.797654
-1.15177
-0.863414
-0.854029
-0.849154
-1.12168
-0.894213
-1.05997
-1.23256
-1.20471
-0.764291
-1.116
-0.792569
-1.07356
-0.735068
-0.994097
-1.02721
-0.954185
-0.988068
-1.14684
-0.943326
-1.16173
-1.15361
-1.1141
-0.931127
-1.11217
-1.13833
-1.14068
-1.13027
-0.945658
-1.13156
-1.13505
-1.1365
-1.13266
-0.948997
-1.1337
-1.13498
-1.13597
-1.13261
-0.95033
-1.13406
-1.13549
-1.13699
-1.1312
-0.951346
-1.1335
-1.13652
-1.13908
-1.12876
-0.95193
-1.13205
-1.13599
-1.13986
-1.127
-0.948808
-1.13167
-1.11585
-1.11953
-0.985088
-1.41515
-0.826448
-0.823521
-0.797588
-1.12346
-1.12037
-0.933429
-0.926211
-1.12061
-0.981064
-0.958113
-0.993547
-1.41013
-0.830857
-0.823368
-0.799054
-0.981503
-1.1172
-0.969639
-0.981012
-0.999361
-0.997762
-0.999865
-1.0003
-0.999904
-0.998714
-1.00209
-1.15387
-1.14302
-0.796163
-0.793698
-0.793082
-0.796114
-1.15163
-0.858291
-0.863113
-0.868397
-1.02742
-1.4433
-0.858532
-1.15167
-0.862848
-1.4352
-1.04689
-1.37188
-1.00063
-0.868606
-1.02733
-1.37219
-0.732584
-0.984182
-0.943907
-0.942813
-0.988368
-1.15277
-1.1143
-1.14
-1.13029
-1.13617
-1.13254
-1.13588
-1.13253
-1.13714
-1.13111
-1.13965
-1.12842
-1.14114
-1.12584
-1.12654
-0.972446
-1.41453
-0.991093
-0.969648
-1.11324
-1.13437
-0.949296
-1.13562
-1.13344
-0.952365
-1.137
-1.13405
-0.951655
-1.13617
-1.13415
-0.950505
-1.13569
-1.13349
-0.949065
-1.13602
-1.13091
-0.945641
-1.13991
-1.11098
-0.93087
-1.16331
-0.954256
-1.16201
-1.11223
-0.930877
-1.15394
-0.988126
-1.14658
-0.952111
-0.741513
-1.02941
-0.895713
-1.16702
-1.11656
-1.13782
-1.13689
-1.1355
-1.13676
-1.13671
-1.13565
-1.13861
-1.13364
-1.14298
-1.12712
-1.14854
-1.11523
-1.12937
-0.97775
-1.3939
-1.03219
-0.934267
-1.19867
-1.21788
-0.918585
-1.22031
-1.21561
-0.922097
-1.21964
-1.21431
-0.920421
-1.21652
-1.21378
-0.919031
-1.21589
-1.21464
-0.918233
-1.21656
-1.21455
-0.916359
-1.22153
-1.20513
-0.903621
-1.23238
-1.05976
-1.1213
-0.993739
-1.04986
-0.915972
-1.07706
-0.73298
-0.836575
-0.951576
-0.873542
-1.19424
-1.16303
-1.12043
-1.11288
-0.928584
-1.15422
-1.17098
-0.909211
-1.15147
-1.01137
-0.961874
-0.945487
-1.39359
-1.1245
-1.06611
-1.43082
-1.02569
-0.956199
-0.976555
-0.949084
-1.16324
-1.11095
-0.940788
-1.14072
-1.1309
-1.13662
-1.13353
-0.935205
-1.13662
-1.13355
-1.13789
-1.13206
-0.932585
-1.14007
-1.12912
-1.14026
-1.12775
-0.927214
-0.934432
-0.935881
-0.935971
-0.937787
-0.934307
-1.14373
-1.12922
-0.950526
-1.13894
-1.12754
-1.14635
-1.1218
-0.945601
-1.14309
-1.09748
-1.22191
-0.938063
-1.38232
-0.83996
-0.803713
-0.817354
-1.08151
-0.878243
-0.78177
-1.14247
-0.765263
-1.10014
-1.14103
-0.764396
-1.12379
-1.13475
-0.762721
-1.13281
-1.13528
-0.762396
-1.12958
-1.12829
-0.762977
-1.13408
-1.12826
-0.764388
-1.13174
-1.11999
-0.763828
-1.12172
-0.859593
-0.828777
-1.03248
-0.901429
-1.00459
-1.04175
-1.16155
-1.17362
-1.16298
-1.16975
-1.13436
-1.13667
-0.947078
-1.13856
-1.13786
-1.13531
-0.944364
-1.13192
-0.938707
-0.888153
-0.891289
-0.792406
-0.923928
-0.896863
-0.860375
-1.003
-0.995711
-0.98546
-0.994605
-0.772365
-1.25856
-0.69705
-0.935714
-0.993457
-0.970862
-0.974847
-1.00296
-0.987841
-0.984709
-1.00432
-0.974686
-1.04073
-0.914841
-1.02979
-1.0332
-1.16754
-1.16624
-1.17047
-1.16278
-1.13633
-1.13422
-0.949701
-1.13715
-1.1401
-1.13606
-0.948373
-1.13548
-0.936162
-0.88787
-0.887772
-0.788652
-0.920696
-0.910653
-0.871828
-0.920671
-0.890349
-0.854862
-1.02713
-0.913981
-0.789603
-0.996211
-1.00079
-0.989669
-0.989473
-0.933633
-0.906303
-0.899896
-0.790563
-0.985278
-0.972436
-1.11367
-0.939367
-1.14089
-1.13888
-1.13183
-0.945801
-1.12996
-0.934888
-1.13668
-1.13552
-1.13382
-0.949317
-1.13281
-0.933251
-1.13597
-1.13603
-1.13362
-0.950878
-1.13351
-0.932101
-1.13662
-1.13768
-1.132
-0.952163
-1.13326
-0.930479
-1.13736
-1.14065
-1.12836
-0.952852
-1.13276
-0.928004
-1.13461
-1.14238
-1.12522
-0.948974
-1.13327
-0.922719
-1.11291
-1.12359
-0.983487
-0.96791
-0.983646
-0.802507
-0.82654
-0.794287
-0.752578
-1.07839
-0.768293
-1.03709
-0.852811
-0.817164
-1.0678
-1.09485
-0.920389
-0.970686
-0.970634
-0.978376
-0.998478
-0.979158
-0.981496
-1.0051
-0.977268
-1.00495
-0.983158
-0.976089
-0.978768
-0.982842
-0.991343
-0.979437
-0.980295
-0.745885
-1.01875
-0.901693
-0.937756
-0.942143
-0.960286
-0.992256
-1.1495
-0.866597
-1.06778
-1.05436
-1.06572
-1.08145
-0.847233
-1.06435
-1.06818
-1.06311
-1.1506
-0.777517
-0.782632
-0.781249
-0.780007
-0.777501
-0.774748
-1.15232
-0.779998
-0.779178
-0.779451
-1.15239
-0.7813
-1.15723
-1.15857
-1.15616
-1.02572
-1.02388
-0.951219
-0.938058
-0.935519
-0.935825
-0.935908
-0.935464
-0.887238
-0.788593
-0.917395
-0.907302
-0.867624
-1.03528
-1.02982
-1.18069
-1.14427
-1.2051
-0.924222
-0.996009
-0.849663
-1.04463
-0.922498
-0.979269
-0.999514
-0.973382
-0.970604
-0.971596
-1.00736
-0.994131
-0.979025
-0.929798
-0.890713
-0.899001
-0.934828
-0.737588
-0.807691
-1.09261
-0.989523
-1.03648
-1.06259
-0.70382
-0.878523
-0.926608
-1.09492
-0.729435
-0.915214
-0.931736
-1.1002
-0.73237
-0.903713
-0.942681
-1.09611
-0.746175
-0.892858
-0.997893
-1.36318
-1.01739
-0.992758
-1.24817
-1.20987
-0.985378
-0.745664
-1.07422
-1.01004
-0.945878
-0.957564
-0.950094
-0.715408
-0.98039
-1.10041
-0.789113
-1.05522
-0.811001
-0.840908
-1.13615
-1.07807
-0.872842
-1.14394
-1.11078
-0.896543
-1.13727
-1.12492
-0.899273
-1.13391
-1.12896
-0.901035
-1.13194
-1.13039
-0.900577
-1.13172
-1.13065
-0.902445
-1.12993
-1.13144
-0.887482
-1.1264
-1.11529
-0.865286
-1.07402
-0.911294
-1.04855
-0.992561
-1.0594
-1.23277
-1.20441
-0.903621
-1.16922
-0.89386
-1.12179
-1.02899
-0.741664
-0.950905
-0.984848
-1.14684
-0.939202
-0.98658
-0.987839
-0.998073
-0.989087
-0.991635
-0.988091
-0.985749
-0.9201
-0.893013
-0.857079
-1.03893
-1.03956
-0.917468
-0.915201
-0.975613
-0.992102
-1.13699
-1.13832
-0.937005
-1.1332
-1.13533
-0.951077
-1.13374
-1.13592
-0.952247
-1.13325
-1.13685
-0.952654
-1.13166
-1.13548
-0.948711
-1.12946
-0.994406
-1.00346
-0.982793
-0.988531
-0.976997
-0.972467
-0.974428
-0.976976
-0.979805
-0.983932
-0.992541
-0.982527
-0.983482
-0.741395
-0.98485
-0.938752
-0.987711
-0.986672
-0.997714
-0.988908
-0.985163
-0.982648
-0.980223
-0.978148
-0.980539
-1.02393
-1.01813
-0.743178
-1.32613
-0.999863
-0.95968
-0.932977
-1.10019
-0.733627
-0.735412
-0.804998
-1.1471
-0.76754
-0.779112
-0.79419
-1.15364
-0.771044
-0.7826
-0.787317
-1.14881
-0.787399
-0.800909
-0.869636
-1.44931
-1.03108
-1.00667
-1.01147
-1.00236
-0.849574
-0.818739
-0.872824
-1.44396
-0.863545
-0.865157
-1.15132
-0.959014
-0.956127
-0.936013
-0.995429
-0.71241
-0.985429
-0.986178
-0.726252
-1.00067
-0.94722
-0.955677
-0.957229
-1.16152
-1.15764
-1.16795
-1.15208
-0.956656
-0.902366
-0.982257
-1.1531
-0.966142
-0.733063
-1.02595
-0.900208
-0.731813
-1.22597
-0.676622
-0.934823
-0.819451
-1.00689
-1.01323
-0.846494
-1.03713
-1.02752
-0.870793
-1.03104
-1.03765
-0.853519
-1.0382
-1.03025
-0.874477
-1.02978
-1.03934
-0.851928
-1.03832
-1.03167
-0.872899
-1.02672
-1.04183
-0.849795
-1.01495
-1.02205
-0.83076
-0.952137
-0.694503
-1.25427
-0.902504
-0.773211
-1.43212
-1.01558
-1.06565
-1.39898
-1.00707
-1.04814
-1.37492
-0.999988
-1.02911
-1.38876
-1.01942
-1.00581
-1.39444
-0.748071
-0.959208
-1.15006
-0.946139
-0.954761
-1.16068
-0.930923
-1.11214
-1.11269
-0.939343
-1.13824
-0.916287
-1.13546
-1.21417
-0.789859
-1.21668
-0.762046
-1.21362
-0.788581
-1.21418
-0.761381
-1.21411
-0.788299
-1.21402
-0.761272
-1.21395
-0.788385
-1.21329
-0.761629
-1.21586
-0.789264
-1.21328
-0.762484
-1.21959
-0.79089
-1.20225
-0.760652
-0.896218
-1.14831
-1.12149
-0.943521
-1.16697
-0.910806
-1.16682
-1.13253
-0.938929
-1.167
-0.911998
-1.16554
-1.13435
-0.937731
-1.16583
-0.912016
-1.16655
-1.13506
-0.937254
-1.16725
-0.912214
-1.16536
-1.13606
-0.937913
-1.16669
-0.912651
-1.16651
-1.13795
-0.939402
-1.16991
-0.912463
-1.16611
-1.14313
-0.945132
-1.15576
-0.901022
-1.20025
-1.15385
-0.961972
-0.869793
-0.835791
-0.733888
-0.994071
-1.04993
-0.911459
-1.07437
-0.862931
-0.897087
-0.908917
-0.935776
-0.939856
-0.982147
-1.1473
-0.943666
-0.985994
-0.951258
-1.16714
-0.904067
-1.2042
-0.792563
-1.22125
-0.763641
-0.996999
-0.986944
-0.974487
-1.15473
-1.02401
-1.43414
-0.863096
-1.15168
-0.858784
-0.867299
-1.06657
-1.06175
-1.05349
-1.06246
-1.06898
-1.44284
-1.02508
-0.95458
-0.939202
-0.940511
-0.943262
-1.14218
-1.14374
-0.944771
-0.98923
-0.981513
-0.97535
-1.15336
-0.931356
-1.114
-1.13892
-0.945977
-1.1308
-1.13568
-0.949529
-1.02832
-0.937851
-0.938821
-0.938144
-0.9382
-0.935767
-0.938039
-0.937986
-0.937365
-0.936851
-0.935626
-0.938239
-0.939456
-1.11453
-1.13905
-1.22081
-1.21411
-1.21597
-1.21341
-0.762338
-1.13178
-0.78932
-1.13017
-0.763868
-1.13287
-0.792339
-1.12666
-0.886308
-0.851411
-1.0389
-0.912558
-1.02941
-1.16851
-0.939322
-1.13733
-0.94582
-1.13412
-1.13552
-0.937418
-1.13401
-0.949262
-1.13349
-1.13398
-0.935224
-1.13349
-0.948852
-1.13433
-1.13439
-0.933849
-1.13486
-0.917327
-1.13582
-1.13408
-0.915839
-1.13935
-1.11286
-0.903812
-1.00265
-1.00315
-0.998675
-0.999619
-0.999982
-0.999751
-0.998698
-1.00224
-1.15394
-1.14247
-0.796766
-0.790288
-0.794695
-0.861347
-1.4419
-1.02528
-1.02597
-1.4294
-0.860856
-0.865946
-1.0686
-1.0659
-1.12504
-1.06515
-1.43494
-1.02376
-0.951154
-1.16832
-0.904424
-1.00127
-0.982121
-1.15632
-1.15032
-0.779252
-0.776685
-1.15238
-0.774107
-0.789832
-1.15195
-0.982629
-0.940459
-0.891425
-0.945343
-1.39185
-1.20231
-0.962356
-1.15214
-0.928387
-1.1217
-1.11051
-0.943137
-1.13839
-0.945454
-1.12969
-0.936984
-1.13455
-0.948256
-1.13342
-1.13247
-0.934004
-1.13509
-0.917695
-1.13549
-1.13505
-0.917554
-1.13536
-0.935828
-0.935937
-0.935952
-0.935722
-0.938281
-0.982048
-1.15627
-1.15012
-0.960484
-1.00518
-0.982714
-1.00118
-0.981795
-0.960429
-1.00496
-0.938773
-0.940629
-0.936919
-0.936451
-0.937547
-0.934835
-0.985154
-0.982569
-0.980229
-0.983083
-0.980294
-0.908683
-0.889823
-0.893127
-0.900162
-0.734117
-1.01918
-0.750447
-1.35932
-0.981287
-0.958452
-0.960314
-1.11287
-0.986042
-1.03285
-0.981108
-1.34965
-0.967003
-0.958059
-0.931441
-1.09552
-0.731923
-0.745306
-0.812562
-1.14075
-0.764285
-0.790923
-0.804549
-1.14707
-0.767728
-0.792111
-0.800045
-1.14226
-0.785665
-0.805659
-1.16286
-0.998837
-0.933473
-0.926237
-1.13371
-1.20888
-0.918671
-1.22178
-0.763938
-0.915376
-1.18292
-0.935631
-1.12324
-1.14867
-0.936586
-1.10065
-1.18664
-1.13398
-1.05158
-0.837405
-0.958366
-0.890219
-1.10832
-1.17188
-1.15381
-1.11856
-0.940487
-1.10886
-0.932083
-1.11457
-0.940264
-1.10906
-0.932825
-1.11557
-0.94286
-1.10946
-1.17467
-1.14797
-0.956556
-0.848267
-1.00936
-1.15415
-0.845353
-1.0129
-1.03052
-0.991029
-0.864381
-0.863348
-0.868608
-1.43525
-0.869714
-0.958348
-1.37618
-1.03425
-0.994278
-0.84479
-0.858431
-1.16005
-0.797229
-0.796723
-1.15673
-0.984698
-1.00572
-1.00123
-0.998102
-0.999596
-1.00003
-0.999759
-0.998672
-1.00217
-1.15394
-1.14276
-0.774086
-0.777267
-1.05759
-1.05346
-1.06532
-1.3716
-1.04727
-0.84901
-0.854239
-0.954819
-0.866662
-0.846924
-1.01533
-1.43258
-1.06572
-1.39168
-1.00661
-1.39822
-1.12509
-1.08241
-1.06616
-1.42983
-0.860956
-0.861512
-1.15207
-0.792774
-0.792269
-0.861685
-0.860854
-0.865329
-1.02083
-1.40704
-1.0214
-1.4413
-1.02466
-1.02569
-0.945417
-0.793034
-0.898868
-0.905838
-0.93614
-0.989426
-0.989051
-1.00067
-0.991958
-0.98836
-0.985996
-0.983724
-0.981735
-0.978531
-0.98292
-0.981782
-1.01442
-0.747735
-0.819749
-0.824396
-1.41514
-0.958612
-0.96883
-0.999073
-1.32253
-0.740609
-0.822703
-0.8252
-0.75303
-0.833026
-0.848242
-1.38987
-0.997413
-1.02981
-0.782497
-0.870311
-0.949033
-0.893298
-0.90668
-0.983875
-1.0257
-1.0233
-0.983198
-0.98158
-1.0121
-1.00625
-1.00014
-0.997355
-0.996535
-0.980658
-0.978337
-0.978056
-0.972587
-0.985883
-0.924207
-0.92209
-0.921144
-0.920202
-0.918379
-0.914061
-1.00697
-0.991214
-0.991818
-0.988825
-0.98543
-0.982823
-0.98228
-0.980217
-0.995112
-0.995083
-1.13976
-1.22088
-1.21387
-1.21614
-1.21329
-0.917398
-1.13632
-1.13494
-0.915813
-1.03979
-0.938084
-0.939374
-1.11392
-1.02412
-1.43435
-1.00066
-0.951359
-0.981805
-1.00127
-1.15417
-0.799854
-0.791288
-1.06963
-1.06102
-1.06897
-1.05716
-0.77337
-1.15245
-1.05759
-1.06579
-0.867912
-1.08247
-1.05802
-1.05274
-1.065
-1.06802
-1.12527
-1.06588
-1.06843
-1.06992
-1.0832
-0.798767
-0.866966
-0.954733
-1.15411
-0.854728
-0.848605
-1.00138
-0.982972
-1.15644
-1.14983
-0.960491
-0.982967
-0.940648
-0.891457
-0.792541
-0.888266
-0.789605
-0.935463
-0.935031
-0.935672
-0.933319
-1.13571
-1.13604
-1.21497
-1.21235
-1.21567
-1.21104
-0.918793
-1.13628
-1.13568
-0.917928
-1.04336
-0.887738
-0.788358
-0.887426
-0.787814
-0.935626
-0.932147
-0.937646
-0.933701
-0.937204
-0.932451
-0.935682
-0.933592
-0.884576
-0.788509
-0.930734
-1.04328
-1.04409
-1.04385
-1.04319
-1.03983
-1.02331
-1.00413
-1.00227
-1.02723
-1.00832
-1.0038
-1.02812
-1.00945
-1.00398
-1.00247
-1.02439
-1.02353
-1.00409
-1.00747
-1.00528
-1.00718
-1.00762
-1.00422
-1.02819
-1.00934
-1.00367
-1.02707
-1.00782
-1.0016
-1.02196
-1.03775
-0.931054
-1.11632
-0.740393
-1.16881
-0.99671
-0.980165
-1.14539
-0.787092
-1.15921
-1.06785
-1.03624
-0.977311
-1.34012
-0.969295
-0.962637
-0.903596
-1.07027
-1.0804
-0.851091
-0.963116
-1.07167
-1.07956
-0.989094
-0.968397
-1.33229
-0.981547
-1.03922
-1.0454
-1.04802
-1.03974
-0.977402
-1.07016
-0.944732
-0.942823
-1.09627
-0.746726
-0.731005
-0.800164
-1.14255
-0.78506
-0.773968
-0.787397
-1.14929
-0.786011
-0.777459
-0.780492
-1.14421
-0.801695
-0.869872
-1.43855
-1.05861
-0.992827
-0.866985
-0.862088
-1.15665
-0.983887
-1.00548
-1.00206
-1.00356
-1.00409
-1.00377
-1.00232
-1.00512
-1.02419
-1.03974
-0.916584
-1.13516
-1.13581
-0.91811
-1.13564
-1.13555
-1.21469
-1.21234
-1.21532
-1.21094
-0.76153
-1.12978
-0.78739
-1.13246
-0.761622
-1.1314
-0.78802
-1.13222
-0.899827
-0.862752
-1.0343
-0.912459
-1.03384
-1.1654
-0.936736
-1.13388
-0.946082
-1.13622
-1.13518
-0.936606
-1.13129
-0.948172
-1.13477
-0.936509
-1.13016
-0.945336
-1.13944
-1.14042
-0.939312
-1.11504
-0.932252
-1.11099
-1.11337
-0.940662
-1.13892
-1.13977
-1.1099
-0.931798
-0.98308
-0.938875
-0.936786
-0.937492
-0.937788
-0.937856
-0.937696
-0.888155
-0.887562
-0.93579
-0.933356
-0.935679
-0.93208
-1.13539
-1.13577
-0.91933
-1.13489
-1.13689
-1.21777
-1.20958
-1.22109
-1.20912
-0.763872
-1.11148
-0.787179
-1.13771
-0.762207
-1.12564
-0.787169
-1.13448
-0.898569
-0.860891
-1.02983
-0.914063
-1.03752
-1.15465
-0.935753
-1.12332
-0.94162
-1.14801
-1.13442
-0.940614
-1.1177
-0.92505
-1.10119
-1.18622
-0.936818
-1.13371
-1.05069
-0.957682
-0.88963
-0.957572
-0.989796
-0.836533
-0.87216
-1.14417
-1.07865
-0.784126
-0.904231
-0.911419
-0.915807
-0.917733
-0.91877
-0.91978
-0.921945
-0.897017
-0.907171
-1.05004
-0.911477
-0.694351
-0.836082
-0.951867
-0.868731
-1.25517
-0.77159
-0.89953
-1.15211
-1.01078
-0.90725
-0.9565
-1.15231
-0.931176
-1.10925
-0.940576
-1.13776
-0.945272
-1.13138
-1.12935
-0.935347
-1.13541
-0.91767
-1.13566
-0.996622
-0.981827
-1.13659
-0.980174
-1.14138
-0.992009
-0.990986
-0.978092
-0.980841
-0.94046
-1.01932
-0.994252
-0.937054
-0.992395
-0.832062
-1.01966
-0.90138
-1.154
-0.94513
-1.14212
-0.943653
-1.13254
-1.13352
-0.939011
-1.13509
-0.948517
-1.13297
-0.935739
-1.13404
-0.948964
-1.13396
-1.13361
-0.933566
-1.13388
-0.982525
-0.982611
-1.13493
-0.981129
-0.980107
-0.983496
-0.988102
-1.14355
-0.981858
-1.1728
-0.984931
-0.971289
-1.01606
-1.00274
-0.995597
-0.974475
-1.16778
-1.00357
-0.864756
-1.03452
-0.912761
-1.16653
-0.937546
-1.1354
-0.946161
-1.13491
-1.13573
-0.936743
-1.13297
-0.949172
-1.13429
-0.935402
-1.13253
-0.948065
-1.13511
-1.13572
-0.935135
-1.13011
-0.935655
-1.02702
-1.0278
-1.0092
-1.00438
-1.00404
-1.00257
-1.00537
-1.00411
-1.02327
-1.02712
-1.04298
-0.937968
-0.938191
-0.938156
-1.04331
-1.028
-1.02796
-1.00937
-1.00827
-1.02837
-1.02452
-0.945827
-1.14047
-0.940361
-1.13956
-1.13066
-0.937108
-1.13577
-1.13633
-1.13013
-1.13035
-0.939131
-1.13581
-1.13809
-1.13371
-1.1431
-0.94307
-1.13936
-1.11342
-1.11005
-1.11099
-1.11251
-0.942997
-1.14204
-1.14007
-0.945824
-1.12985
-0.939093
-1.13748
-1.13622
-0.948926
-1.13268
-0.937637
-1.13645
-1.13494
-1.13483
-1.13532
-0.935923
-1.1335
-1.13316
-0.948917
-1.13296
-0.937641
-1.13459
-1.13708
-1.13564
-0.946459
-1.13752
-1.16693
-0.939128
-1.13266
-0.94425
-1.14228
-1.16837
-0.944822
-1.12163
-1.11096
-1.17175
-0.956279
-1.15334
-0.931701
-1.16316
-0.954907
-1.16171
-0.93166
-1.15469
-0.956203
-1.17033
-1.11186
-1.12057
-0.928854
-0.983004
-0.975001
-0.980271
-0.750695
-1.01573
-0.965541
-0.988995
-0.99067
-0.746684
-0.977531
-0.944096
-0.963854
-1.01692
-0.750551
-1.40013
-1.03107
-1.00461
-0.865581
-1.15022
-0.976091
-0.946367
-0.948018
-0.9744
-0.90997
-1.00886
-1.15205
-0.846422
-1.03094
-1.39971
-1.00524
-1.4296
-1.02577
-0.940705
-0.939479
-0.937702
-0.938358
-1.0291
-0.94967
-1.13401
-0.935381
-1.13395
-1.13469
-1.13342
-1.13689
-0.936931
-1.13401
-1.1358
-0.946872
-1.1356
-1.16694
-0.937413
-1.13439
-1.16674
-0.913383
-1.03525
-1.03479
-0.863871
-1.03509
-1.03484
-0.86401
-1.03422
-1.0359
-0.86198
-1.03081
-1.03849
-0.858162
-1.01193
-0.971531
-0.999927
-0.973444
-1.00295
-0.973986
-1.0035
-0.974053
-1.00384
-0.974095
-1.00425
-0.865449
-1.03066
-1.16845
-0.913126
-1.03909
-1.01699
-0.8527
-1.00317
-0.974796
-0.97134
-1.02004
-0.901994
-1.2025
-0.961885
-1.15237
-0.928949
-0.982957
-0.983604
-0.994491
-0.772338
-0.901194
-1.25468
-0.694493
-0.952742
-0.83224
-0.992083
-0.937134
-0.836463
-0.869016
-1.01019
-0.908784
-1.15206
-0.940529
-0.979986
-0.97508
-0.987768
-0.994198
-0.987159
-0.984221
-0.983017
-0.936632
-1.13411
-1.16778
-1.16575
-1.13525
-0.990627
-0.990126
-0.989646
-0.983922
-0.980656
-0.977304
-0.975871
-0.990891
-0.946841
-1.13514
-0.936793
-1.13151
-1.13734
-1.13114
-1.17157
-0.936177
-1.13666
-1.16337
-0.913621
-0.761534
-0.99768
-0.984571
-0.98757
-1.00153
-1.1373
-1.21828
-1.20964
-0.787701
-0.885925
-0.886993
-0.787622
-0.935248
-0.930944
-1.13546
-0.934118
-0.929709
-1.13438
-0.919953
-1.04261
-0.937868
-0.937114
-1.03854
-1.02258
-1.02704
-1.00791
-1.00927
-1.02898
-1.00386
-1.00694
-1.00379
-1.00438
-1.02921
-1.02817
-1.02737
-1.00823
-1.02797
-1.04287
-1.0432
-0.918579
-0.997583
-0.996998
-0.982797
-0.984711
-0.990464
-0.981884
-0.98056
-0.974482
-0.987113
-0.935331
-0.996982
-0.987033
-0.984739
-0.986812
-0.989387
-0.994881
-0.992053
-0.989524
-1.00293
-0.999269
-1.13339
-1.13735
-0.919047
-1.13213
-1.00816
-0.992858
-0.987176
-0.992148
-0.892346
-0.950379
-1.21062
-1.24757
-0.745578
-0.997581
-1.36346
-1.0171
-0.849811
-1.00219
-1.01327
-0.866373
-0.868942
-1.45135
-1.03713
-1.00486
-1.27784
-1.10246
-1.10389
-1.04463
-1.06714
-0.790516
-1.16117
-0.981692
-1.00375
-1.00169
-1.02804
-1.02924
-1.02814
-0.937511
-0.935226
-0.930735
-0.934035
-0.929425
-0.885647
-0.88672
-0.887192
-1.1672
-1.16296
-0.936244
-1.13096
-0.945303
-1.13966
-1.13369
-0.937264
-1.12768
-0.944999
-1.13111
-0.936967
-0.93759
-1.02852
-1.04308
-1.04236
-0.92042
-1.0271
-1.00782
-1.00919
-1.00931
-1.02866
-0.937807
-0.937215
-0.939073
-1.14146
-0.981196
-1.13038
-0.975452
-1.1138
-1.16446
-0.943841
-0.977046
-0.992052
-0.73979
-0.982372
-0.981324
-0.983249
-0.988488
-1.13818
-0.988342
-0.973668
-1.03384
-1.0031
-0.985343
-0.973553
-1.16639
-1.00271
-0.862979
-1.03329
-0.912818
-1.03488
-0.973428
-1.00214
-0.984025
-0.984136
-0.988916
-1.13698
-0.984258
-1.13534
-0.978728
-0.989132
-1.13667
-0.984252
-1.13418
-0.978991
-0.989173
-1.13695
-0.972912
-1.17096
-0.999176
-0.857115
-1.01101
-0.914667
-1.18237
-0.971138
-0.985213
-0.990122
-0.976777
-0.951984
-0.893505
-0.938496
-0.921303
-0.979259
-0.988722
-1.13669
-0.981312
-0.988415
-0.976981
-0.961281
-0.940166
-0.97582
-0.981293
-0.983231
-1.13543
-1.13359
-0.980701
-0.979963
-0.983694
-0.991464
-0.980862
-0.967718
-0.940229
-0.975344
-0.98025
-0.98166
-1.13272
-0.996095
-0.996232
-0.996378
-0.918752
-0.919684
-0.921671
-0.883703
-0.911222
-0.918775
-0.918632
-0.919164
-0.996015
-0.985202
-0.984432
-0.980707
-0.933421
-0.726845
-0.813369
-0.919413
-0.976988
-0.991423
-0.986515
-0.9797
-0.976637
-0.975739
-0.976862
-0.980135
-0.987364
-0.985989
-0.975091
-0.977691
-0.977721
-0.94395
-1.15022
-0.940105
-0.994888
-0.983319
-0.993798
-0.990064
-0.944282
-1.13213
-1.13431
-0.938056
-1.02452
-1.0041
-0.960553
-1.02341
-1.03991
-0.891705
-0.945536
-1.39197
-1.23322
-0.763675
-0.888505
-1.0431
-1.02837
-1.00823
-1.0272
-1.02789
-1.0093
-1.02909
-0.938286
-0.938281
-0.938435
-0.938149
-1.02799
-0.948614
-1.134
-0.935508
-1.13252
-1.13644
-0.93656
-1.12922
-1.13185
-1.13418
-1.13633
-0.937344
-1.12743
-1.13724
-1.13342
-0.946085
-1.1402
-1.15506
-0.914921
-0.762269
-0.99091
-0.982898
-0.984053
-0.988774
-0.990233
-0.957627
-0.95186
-0.893545
-0.975463
-0.938534
-0.920968
-0.980209
-0.990271
-0.978362
-0.976112
-0.986182
-0.987264
-1.13487
-1.13414
-1.13518
-1.13425
-0.937456
-1.13509
-1.13313
-0.948754
-1.13508
-0.938847
-1.1328
-1.13093
-0.945864
-1.13855
-1.14336
-1.14063
-0.943917
-1.03994
-1.0247
-1.00232
-1.00478
-1.00277
-1.00366
-0.934292
-0.9273
-1.12248
-0.799151
-0.734012
-1.15939
-1.06641
-1.06725
-0.977698
-1.04083
-1.04847
-1.06593
-0.777777
-1.14956
-0.95866
-1.15171
-1.15773
-1.15189
-1.15127
-1.12161
-0.892432
-1.04574
-1.3329
-0.754551
-0.985554
-1.11746
-1.03909
-1.10295
-1.02658
-0.993035
-1.29399
-1.08725
-0.805505
-0.871937
-1.44476
-0.864386
-1.15535
-0.802558
-1.15788
-0.960174
-1.0071
-1.00338
-1.02261
-1.02283
-1.03831
-1.02361
-1.02755
-1.02361
-1.00411
-1.00802
-1.0282
-1.029
-1.04333
-0.93815
-0.93797
-0.937439
-1.02396
-0.939065
-0.884824
-0.784584
-1.20935
-0.774767
-0.991565
-1.10958
-0.940679
-0.985687
-0.988934
-1.1214
-0.79566
-0.730576
-1.16134
-0.981624
-0.960234
-1.1512
-0.773748
-1.15157
-1.06638
-1.0666
-1.06917
-0.946392
-1.04538
-1.33207
-0.985406
-1.03936
-1.04482
-1.04615
-1.04996
-1.06629
-0.782565
-1.15154
-1.08348
-1.04671
-1.08171
-1.06694
-0.778748
-1.15359
-0.961764
-1.15791
-1.15727
-1.0282
-0.938962
-0.939528
-1.02847
-1.02381
-0.891241
-0.941347
-0.939827
-0.983317
-1.02344
-1.02764
-1.02966
-0.945343
-1.19879
-0.965125
-0.973094
-0.986001
-0.983656
-0.982956
-0.983897
-0.986719
-0.990609
-1.13597
-1.13417
-0.946554
-0.888162
-1.04343
-0.946872
-1.13481
-1.13642
-0.937145
-1.13594
-1.13408
-1.13367
-0.949669
-1.13446
-0.987359
-0.975928
-0.97917
-0.986146
-0.986301
-0.984079
-0.987244
-0.974635
-0.975393
-0.978355
-0.983947
-1.14097
-1.13739
-1.14142
-0.984168
-0.986202
-0.987309
-0.949594
-0.9908
-1.13678
-1.1355
-0.946754
-0.887999
-0.887836
-1.04291
-0.946262
-1.13676
-1.13803
-0.99024
-0.973624
-0.97381
-0.973977
-0.97414
-0.974703
-0.971038
-0.936908
-0.992228
-1.00349
-1.00496
-1.004
-0.990929
-1.00428
-1.0038
-1.00427
-0.989451
-0.981919
-0.928685
-0.978418
-0.985248
-0.985137
-0.973811
-0.959917
-0.939571
-0.977696
-0.974216
-0.959838
-0.942932
-0.973478
-0.972067
-0.938582
-0.967829
-0.888221
-0.945335
-1.13359
-0.942285
-1.00058
-0.980071
-1.15522
-1.08427
-1.08713
-1.11722
-1.02627
-1.10258
-1.10388
-1.1024
-1.08458
-1.04404
-1.09946
-1.29266
-1.10265
-1.10495
-1.18417
-1.15461
-1.29923
-1.30044
-1.28024
-1.29648
-1.2944
-0.954789
-0.958581
-1.00345
-1.16288
-0.819426
-0.954724
-0.985673
-0.949589
-0.92552
-1.13787
-0.93786
-1.13452
-0.908666
-0.887785
-0.91307
-0.885872
-0.895869
-0.900352
-1.16638
-1.13266
-1.13664
-0.984352
-1.2945
-1.13735
-0.995835
-0.761555
-0.913177
-0.735037
-1.15387
-0.764255
-0.763707
-0.762208
-0.902201
-0.864997
-0.935131
-0.900096
-0.959483
-0.951339
-0.754678
-0.931234
-1.15203
-0.791245
-1.06469
-0.75149
-1.11498
-0.933927
-0.956121
-0.880027
-0.851003
-0.742433
-0.931196
-0.932358
-0.936925
-0.788313
-0.938364
-1.13613
-0.934475
0.992745
0.981052
0.991938
0.985211
0.978965
0.976298
0.975631
0.976785
0.979943
0.986762
0.973301
0.968078
0.720776
1.01663
1.1523
0.905559
1.00644
0.955609
1.19694
0.89582
1.14904
1.01093
0.848211
1.03629
1.02802
0.863586
1.03558
1.03202
0.86496
1.03529
1.03292
0.861069
1.03571
1.03228
0.862631
1.03293
1.03459
0.861729
1.02778
1.03892
0.851639
1.01271
1.01997
0.8307
0.949815
0.693081
1.25206
0.772125
0.900715
1.01444
0.751386
0.963342
0.991539
0.74849
0.984092
0.982236
0.754064
0.995067
0.953766
0.747597
0.984825
1.18281
0.820244
1.09929
1.03593
0.954271
0.959032
1.13673
0.950128
0.954933
0.95483
1.14613
0.956715
0.95333
0.937986
1.14752
0.974788
0.954499
0.90513
1.14989
1.0066
0.960186
0.866811
0.833464
0.731878
0.909259
1.07159
1.11372
1.12368
1.13009
1.12788
1.12956
1.12964
1.1289
1.13092
1.13013
1.13075
1.13022
1.13099
1.12839
1.12906
1.12082
1.1039
1.04913
0.861314
0.977504
0.99727
1.02825
0.95637
0.720963
1.2905
0.997875
1.05672
0.993902
1.03176
1.15464
1.18278
1.10057
1.04947
1.0537
1.05003
1.10046
1.29071
1.05666
0.846402
0.857347
0.957243
0.869847
0.846866
1.01045
1.30113
1.03167
1.37548
0.99377
1.15462
0.977322
0.997335
1.05088
1.22775
1.20233
0.903765
1.16992
0.8908
1.12194
1.02884
0.720346
0.955435
0.987984
1.15415
1.11526
1.1408
1.13098
1.13624
1.13348
1.13553
1.13349
1.13664
1.13189
1.13898
1.12932
1.14028
1.12721
1.12495
0.972743
1.41112
0.988619
0.969348
1.11276
1.13399
0.949163
1.13565
1.13294
0.952069
1.13754
1.13313
0.9515
1.13781
1.13254
0.950586
1.13783
1.13188
0.949285
1.13736
1.13059
0.946179
1.14032
1.11242
0.932488
1.16418
0.942675
1.14961
0.984972
0.709755
0.991577
0.947151
1.15208
0.961466
0.719511
1.02052
0.905294
1.17335
1.11213
1.14201
1.13794
1.13416
1.14471
1.12912
1.14789
1.13349
1.13263
1.13913
1.13002
1.14191
1.12016
1.13412
0.979615
1.41577
1.01728
0.960919
1.07389
1.23179
0.91756
1.21513
1.21206
0.918479
1.21361
1.21213
0.918064
1.22903
1.10508
0.948666
1.15976
1.12036
0.947551
1.14693
1.12837
0.944444
1.14395
1.12013
0.928352
1.14892
1.00873
1.15227
0.900375
0.732796
1.22684
0.852144
1.19516
1.15261
0.896355
1.01316
0.934664
0.814287
0.677449
0.8635
0.727405
1.05054
1.10784
0.760976
1.20355
1.11375
0.902892
1.22709
1.17071
0.890385
1.12173
1.05214
0.787182
0.944869
1.3762
0.993559
1.15453
1.03182
1.30119
1.01077
0.847232
0.95748
0.869841
0.805551
1.15997
0.857304
0.868098
0.800854
0.798037
1.15691
0.86295
0.862415
0.797242
0.80102
1.15684
0.868622
0.856916
0.80418
0.870166
1.1597
0.957251
0.846617
1.03199
1.01041
1.30167
1.0319
1.15457
0.992799
1.05703
1.28813
1.00131
1.02712
1.27643
1.02641
1.00205
1.28773
1.05664
0.846722
1.09639
1.18207
1.10053
1.43898
1.02803
0.9516
0.989297
0.945022
1.16524
1.11307
1.11291
1.11617
0.932349
1.1657
1.15344
0.990196
1.15015
0.943711
0.95583
1.03018
1.45198
1.10428
1.10059
1.43859
1.02803
0.951536
0.889063
1.05241
1.22737
1.20289
0.76091
1.1048
0.787685
1.04879
0.727734
0.996183
1.12182
1.0324
0.95106
0.988961
0.987892
1.15006
0.951997
1.03139
0.996489
0.976431
0.867414
0.89266
0.843705
0.813727
0.979401
0.918375
0.971143
0.979028
0.993701
1.00054
0.857596
1.00661
1.03659
1.16334
1.17461
1.15316
1.19146
0.907665
1.05179
1.02929
0.9106
0.762463
1.12749
1.13966
0.75958
1.2121
1.13681
0.915899
1.21154
1.1345
1.13551
0.914898
1.21393
0.788881
0.888715
0.89105
0.943717
0.790798
1.12924
0.893269
1.11632
0.922995
0.924064
0.894919
0.860325
1.0061
0.974524
0.965102
0.980241
0.978104
0.970005
0.936352
0.942369
0.977474
0.956215
1.15424
1.16545
1.11218
0.932886
1.11463
0.943583
1.1409
1.14118
1.13252
0.946727
1.12905
0.939442
1.13973
1.13554
1.13598
0.950059
1.1286
0.937529
1.14133
1.13453
1.13599
0.951479
1.13018
0.934757
1.13931
1.13634
1.13305
0.951765
1.13232
0.930906
1.13714
1.13881
1.12941
0.951698
1.13193
0.929096
1.13479
1.14034
1.12695
0.948881
1.1339
0.926646
1.11161
1.12266
0.982441
0.969507
0.98736
0.801922
0.834764
0.805127
0.835666
0.908182
1.41498
0.965642
0.886169
1.15799
0.886411
1.08982
0.767392
1.10487
1.13603
0.759553
1.12994
1.13821
0.767493
1.08294
1.28975
0.987036
1.13044
0.904076