/*--------------------------------*- C++ -*----------------------------------*\
| =========                 |                                                 |
| \\      /  F ield         | OpenFOAM: The Open Source CFD Toolbox           |
|  \\    /   O peration     | Version:  2306                                  |
|   \\  /    A nd           | Website:  www.openfoam.com                      |
|    \\/     M anipulation  |                                                 |
\*---------------------------------------------------------------------------*/
FoamFile
{
    version     2.0;
    format      ascii;
    arch        "LSB;label=32;scalar=64";
    class       volScalarField;
    location    "2.3";
    object      gradTy;
}
// * * * * * * * * * * * * * * * * * * * * * * * * * * * * * * * * * * * * * //

dimensions      [0 -1 0 1 0 0 0];

internalField   nonuniform List<scalar> 
5322
(
0.0466134
0.00553927
0.00138097
0.00045554
0.00115697
0.00138211
0.00125381
0.00103126
0.000822193
0.000609527
0.000192722
-0.0010258
-0.00104899
-0.000957823
-0.000859505
0.00193948
0.0025632
-2.45079e-05
0.00196307
-0.00277774
0.00302412
-0.00384027
0.00437099
-0.00560861
0.00648354
-0.00786418
0.00897823
-0.0111188
0.0125396
-0.0147127
0.0164646
-0.0191462
0.0217004
-0.0211308
0.0216003
-0.0122197
0.024542
0.0299286
0.0151303
0.0169743
0.0221158
0.0185753
0.0198705
0.02067
0.0197154
0.0202582
0.0200308
0.021411
0.0206176
0.0190215
0.0240087
0.0107487
0.0125854
-0.0388922
-0.00189032
-0.0223388
0.0122955
-0.0290994
-0.00138694
-0.0252832
0.0124773
-0.0285958
-0.001233
-0.0250986
0.0125334
-0.0296612
-0.00169099
-0.0243502
0.0127142
-0.0330827
0.000997535
0.0258469
0.014344
0.020111
0.0149568
0.0190077
0.0158146
0.0189522
0.016126
0.0226105
0.00168458
0.00876519
0.0128368
0.0204445
-0.00133815
-0.00741382
0.00270268
0.00513464
0.0109383
0.00157775
0.00293888
0.000526495
7.32656e-05
7.07373e-05
0.0252747
-0.0145222
0.000472269
0.0146789
0.000450561
-0.000747917
0.00264389
0.000472159
0.0156888
-0.024582
0.0220586
0.000511947
-0.000490884
-6.15114e-05
1.39036e-05
4.77672e-05
4.43027e-05
3.418e-05
2.78489e-05
2.42055e-05
-1.21475e-05
9.93711e-06
0.000723391
-0.000278866
-0.000113605
-0.000537063
0.000668666
-0.000340293
-0.000681515
-0.000946982
-0.00106334
-4.14972e-05
0.000791025
-0.000590132
5.72053e-05
0.000648995
-0.000644696
2.78296e-05
0.000673941
-0.00069146
-2.26255e-05
0.000627689
-0.000754879
-6.16358e-05
-0.000188735
0.00116048
0.000952
-0.000653208
0.000428791
0.000332309
-0.000707442
9.06435e-05
-0.000680862
0.000531553
0.000553961
-0.000612667
-8.49288e-06
-0.00056155
0.000566771
0.000622504
-0.00055116
-1.42663e-06
-0.000518884
0.000669602
-3.33606e-05
-1.97643e-05
0.0021829
-0.00169899
0.00210801
-0.00259378
0.00011022
-0.00137544
1.08047e-05
6.89431e-05
-0.000205307
0.000588422
-0.00117442
0.00117249
-0.00208911
7.00152e-06
0.00213905
-0.00237086
0.00246816
-0.00291009
1.48203e-05
0.00287286
-0.00348898
0.00361976
-0.00431853
2.00176e-05
0.00423341
-0.00514164
0.00531751
-0.00635728
2.43669e-05
0.00623139
-0.00749115
0.00774038
-0.00915217
3.47492e-05
0.00897709
-0.0106508
0.0110046
-0.0127718
5.41104e-05
0.0125245
-0.0146894
0.0151757
-0.0171716
7.82536e-05
0.0167939
-0.0195166
0.0201379
-0.0218628
0.000109608
0.0212545
-0.0246512
0.0248589
-0.0145619
-9.78478e-05
-0.00156325
0.000768798
-0.000491577
-2.32898e-05
0.000139632
0.000218778
1.58775e-05
0.025305
-0.0145023
7.53463e-05
0.0174105
-0.0026476
-0.00110979
0.000956217
-0.000972198
0.0145916
-0.0249231
0.000155179
0.000110917
0.000311303
0.000170829
7.1818e-05
2.22334e-05
5.88668e-07
-1.08756e-05
-1.7508e-05
1.59912e-05
-9.71539e-06
-0.000578755
-0.000619289
-0.000620557
-0.000578999
0.000137006
0.0001902
0.000111943
-0.000761893
0.00037047
-0.000780385
0.000189737
0.000137285
0.000113116
-0.000771125
0.000254163
0.000731873
0.00046147
-0.000761877
0.000371579
0.000794817
0.00111222
0.00119674
-0.00210958
-0.0021062
-0.00226279
0.00185593
-0.00261755
0.00288029
-0.00366696
0.00431149
-0.00531926
0.00632051
-0.00766587
0.00897292
-0.0108386
0.0122706
-0.0149504
0.0161393
-0.0198393
0.0202025
-0.00374703
0.0121472
-0.00225548
0.000312712
0.0174934
-0.0182597
0.000892751
0.0146311
-0.0141295
0.000636892
0.0113686
-0.0103098
0.000472161
0.0083972
-0.00728228
0.00034866
0.00593181
-0.00504107
0.000244186
0.00402842
-0.00346839
0.000155909
0.00264741
-0.00247359
0.00017551
0.0016288
-0.000155365
0.00162839
-0.00247435
0.00017566
0.00186432
-0.00225181
0.000869752
0.00139192
0.00101744
0.000969594
-0.00198109
0.00147582
-0.00236113
0.0025331
-0.00329692
0.00389409
-0.00479721
0.00575071
-0.00694794
0.00816506
-0.00989911
0.0111525
-0.0136881
0.014612
-0.0176215
0.0177533
-0.00213914
0.00905767
-0.00748053
0.000690777
0.0245256
-0.0257295
0.00116712
0.0211254
-0.0192874
0.000755062
0.0161738
-0.0137541
0.000508142
0.0117787
-0.00965631
0.000360164
0.00831911
-0.0066747
0.000246777
0.00572692
-0.00457311
0.000162152
0.00387592
-0.00324272
0.000188607
0.0025007
-0.00252472
0.000861565
0.00194645
0.0017104
-0.000855989
0.00180461
-0.000416416
0.000275617
0.00208105
-0.00181645
0.00189013
-0.00206765
0.0033206
-0.0029324
-2.62277e-05
-0.00283936
0.0024292
-0.00221451
5.67048e-05
0.00231389
9.72311e-05
2.30959e-05
-0.000621478
5.85174e-05
-4.92116e-05
3.30019e-05
-1.52747e-05
-6.47227e-06
0.00213019
-0.0021334
0.00240169
-0.00287561
3.73647e-06
0.00353349
-0.00424241
0.00521138
-0.0062412
1.7213e-05
0.00760366
-0.00898054
0.0108308
-0.0125122
3.54448e-05
0.0149562
-0.0167619
0.0198318
-0.0212497
-3.54447e-05
3.7898e-05
6.04645e-05
0.000172615
8.88757e-05
8.91742e-05
0.0151119
-0.0167552
7.77492e-05
0.0199019
-0.022627
0.0202227
-0.0210494
0.00019902
0.0256852
-0.0275975
0.0177204
-0.0133226
-0.0243731
-0.00186231
-3.81456e-05
-0.00875338
-0.00234941
0.000384557
0.0130217
0.0160766
0.00106283
-0.0219252
0.0148401
-1.94723e-05
-0.0137511
0.0110775
-0.000175637
-0.00934714
0.00800309
-0.00012364
-0.00633454
0.00555213
-0.000129337
-0.00434784
0.00393834
-0.000123193
-0.00284232
0.00281264
-0.000195604
-0.00186307
0.000496045
0.000799567
-0.0011816
-5.06028e-05
0.00207517
-0.00223688
0.00254824
-0.00300557
0.00368809
-0.00440785
0.00715476
-0.00627946
-2.67779e-05
-0.00598133
0.00521363
-0.00428391
-3.1458e-05
0.00486535
1.89012e-05
-6.96769e-05
-4.0174e-05
-0.000173936
-0.000291422
9.41356e-05
0.000178484
5.14618e-05
0.00010794
0.000154623
8.68799e-05
-0.000114875
0.00184557
0.000588802
0.000113616
0.000458097
1.89348e-05
-0.00011977
-8.12268e-05
0.000106649
0.000147371
-0.00014017
-0.000235104
-0.00341627
-0.000131871
0.0039735
-0.00502623
0.0053468
-0.00634124
0.00765301
-0.00885905
0.0145555
-0.0125516
8.53051e-06
-0.0123301
0.0108797
-0.00902204
-1.70851e-05
0.0103366
6.482e-05
-8.11183e-05
-8.44007e-05
4.37401e-05
-0.00082522
-0.00038502
-0.000272508
-0.000553077
-0.000182255
-0.00013201
0.00277771
-8.01398e-05
-8.33389e-05
0.000272337
-0.000561233
-0.000172896
0.00103572
0.00194646
0.00353936
0.000260413
-3.53462e-05
0.000135109
2.20099e-05
-0.0026035
-8.23871e-05
0.002899
0.00264444
-0.00346437
0.000156434
-0.00365827
-0.000143693
0.0043341
0.00402758
-0.00503012
0.000245654
-0.00532857
-0.000213929
0.00633339
0.00594325
-0.00726512
0.000351816
-0.0077128
-0.000187913
0.00894719
0.00844423
-0.0102968
0.000479461
-0.0109643
0.000158047
0.0120999
0.0115224
-0.0141806
0.00065204
-0.0151708
0.00140461
0.0154882
0.0150759
-0.0186009
0.000917026
-0.0198599
0.00501133
0.0185293
0.0185272
-0.00282422
0.000325387
-0.00340262
0.0581713
-0.0281612
-0.02905
0.0433913
0.0114296
0.00412747
-0.0347544
-0.00801153
-0.00484363
0.0153193
-0.0160604
-0.000305166
0.000654781
-0.0028471
-0.00324352
-0.000637576
0.000874715
0.000487369
-0.000176598
-0.000549126
-0.000175668
0.000250421
7.01625e-05
3.68118e-05
1.58269e-05
-5.87484e-06
-2.51987e-05
-9.45745e-05
-4.72287e-05
0.00120993
-0.00121001
1.22645e-05
8.53655e-06
-0.00123122
0.00121293
-2.8372e-06
4.8529e-06
-4.94937e-06
-9.1119e-05
-5.77998e-05
0.000220032
1.74067e-05
0.000252977
-8.89446e-05
-0.000109614
-2.20094e-06
0.000413632
-0.00048508
0.000490058
-0.000408929
-0.000415175
-0.00034976
1.53595e-05
0.000486946
0.000432865
-0.000429334
-1.20135e-05
-0.000487681
1.02628e-06
2.24343e-06
2.22706e-05
3.23631e-05
2.54168e-05
-0.000201719
-7.20563e-05
-0.000131052
-0.000176151
-0.000181772
-6.80172e-05
-2.6626e-05
0.000944306
-0.00203125
-0.000845339
-0.000136116
0.00848981
-0.00952029
0.0106826
-0.0121716
0.0143452
-0.000598128
-0.013309
-0.000415523
0.0122664
-0.000291187
-0.0011341
0.000189973
0.000135741
0.000260019
0.000303412
-0.0002655
-0.00326087
0.0112014
-0.00532398
-0.0190523
-0.00288835
-0.00342312
-0.0438972
-0.0123901
0.00160662
-0.0184472
0.0133588
0.000661461
0.000611429
0.0161461
0.0135152
0.00174917
-0.00155667
0.0177756
0.0159908
0.00185762
-0.0018576
0.0161705
0.0181997
0.00173409
-0.00417214
0.0134793
0.0184532
-0.00656962
0.0105464
-0.00916388
0.00979745
-0.0384461
-0.0207802
0.00337495
-0.0095069
0.018459
-0.00115829
-0.0299589
0.0170849
-0.000324267
-0.0201785
-0.0200695
-0.0288589
0.0100076
-0.0151897
-0.0101445
0.015899
-0.0284709
-0.00412392
0.0182454
-0.0190517
-0.0013849
0.0148388
-0.0130446
-0.000719405
0.0110403
-0.00912671
-0.000545442
0.00788224
-0.00636905
-0.000413699
0.00549471
-0.00437584
-0.000256638
0.00379176
-0.00299547
-3.23403e-05
0.00273569
-0.00196409
0.000442925
0.00178147
-0.000892366
0.00170073
0.00194308
-0.00254907
0.00249421
-0.00327537
0.000191605
0.0014711
-0.0019828
0.000860081
0.000964278
0.00102536
0.00139118
0.00119414
0.000868953
0.00169707
0.00102895
-0.000197261
-0.000606937
-0.000809107
-0.000785023
-0.00107865
-0.00159877
-0.00122438
-0.000567389
-0.000302435
0.00579261
-0.00698065
-0.000228123
-0.000174535
-0.000333603
3.28288e-05
-0.00868261
0.00761652
2.76963e-05
0.00634927
-0.00764374
2.88359e-05
0.00916227
-0.010859
5.87885e-05
0.0128125
-0.0149539
0.000107492
0.0172276
-0.0197976
0.000144012
0.0217752
0.000168754
0.000376933
1.73686e-05
-2.25442e-05
-7.43372e-05
1.1974e-05
3.15516e-05
2.49129e-05
1.54579e-05
7.45094e-06
2.88437e-06
1.73583e-06
1.10489e-05
3.28036e-05
-0.00117918
1.98282e-05
6.3226e-05
-6.50082e-06
-1.0241e-05
-1.56714e-05
-2.24102e-05
-3.68004e-05
-7.05189e-05
-0.000136872
-0.000184053
0.000753637
-0.00022177
-0.000583017
-0.000793464
0.015473
-0.0165562
0.0196558
2.20351e-05
-0.0027412
0.00228627
0.00713967
2.82333e-05
-0.00640997
0.00600392
0.00612942
9.35604e-06
-0.00682954
0.00638058
0.0055072
-7.384e-06
-0.00861349
0.00817297
0.00770656
-0.000165209
0.0106794
-0.0112344
0.0109562
-0.0117691
-0.00110039
-0.0059649
0.00848053
-0.000751329
-0.00815902
-0.000189585
-5.86329e-05
0.0283069
-9.11986e-05
-0.0284858
0.0177671
-0.000633683
-0.0183778
0.0184227
-0.000409391
-0.0193067
0.0286819
-0.000278566
-0.0286974
0.0254319
-0.0253414
0.0251751
-0.0257986
0.000111643
-0.0283883
0.0280685
-3.25749e-05
-0.0184184
-0.000702728
0.0185728
-0.0158493
0.000100071
0.0281501
0.0101798
0.0275328
0.0102006
-0.0121546
0.0178321
0.00225823
-0.0133001
0.0132735
0.000863617
-0.010704
0.00981832
0.00058535
-0.00797249
0.00721389
0.000422333
-0.00573654
0.00504447
0.000313005
-0.00401529
0.00351303
0.000152321
-0.0027947
0.00228935
-8.27192e-05
-0.00208434
0.00126702
-0.000762202
-0.00208829
-0.00059458
-0.00184941
0.00122009
0.000114992
6.13898e-05
0.000758149
0.000192496
-0.00117087
-0.000955239
-0.000253942
-0.000742652
-0.000470085
-0.000362904
-0.000823339
-0.000397903
-0.000423897
-0.000817332
-0.0012002
-0.00126758
-0.000864911
0.00224465
0.000150099
-0.00149028
-0.000172641
0.00232241
0.00273437
6.72731e-05
-0.00241698
-0.00015591
0.00318424
0.00466754
6.86102e-07
-0.00577577
0.000104669
0.00676825
-4.6889e-05
-0.00839316
0.000162124
0.00968313
-7.28079e-05
-0.0118815
0.000147189
0.0134507
-9.58703e-05
-0.016279
0.000201408
0.0180251
-0.000178928
-0.0215896
3.95754e-05
0.0230093
-0.000497426
-0.0277274
-0.000764667
0.000553794
-0.0168245
0.0274411
0.000158978
0.0157455
0.000348526
-0.0134418
0.0220559
-4.10794e-05
0.0119465
0.00030129
-0.0102594
0.0168147
-3.52736e-05
0.00886591
0.000241778
-0.00749204
0.0123345
-1.98062e-05
0.00635428
0.000204676
-0.00531924
0.00874498
-1.2457e-05
0.0044373
0.000145001
-0.00367284
0.00604229
-6.95539e-06
0.00302135
0.00010147
-0.00255203
0.00414019
-1.57746e-05
0.00209404
6.19388e-05
-0.00189513
0.00287386
-9.26818e-05
0.00182857
-0.000271078
0.00042053
-0.0019498
-0.00169972
0.000884781
-0.00179965
-0.000454481
-0.00022653
-0.00355019
-0.00195339
-0.00171348
-0.00115932
-0.00086755
0.00200949
0.00232072
0.000192317
-0.00141197
-0.000187374
0.0033157
7.57726e-05
-0.00390652
0.000115212
-0.000246381
-0.000117542
-1.80113e-05
-0.00195237
-2.50845e-05
0.000773939
-0.000102074
-0.000132073
-0.00020513
0.000767667
-0.000249197
0.000103642
9.08493e-05
2.90664e-06
7.07819e-06
6.41913e-06
6.26385e-06
5.22899e-06
5.92798e-06
-9.77494e-06
-3.51612e-06
0.00353666
-0.00409282
2.22679e-05
-7.57259e-06
-2.94539e-05
2.16698e-06
-0.00245502
1.09429e-06
0.00289863
-0.0035793
4.72443e-06
0.00430362
-0.00525386
1.29245e-05
1.04136e-05
-9.38254e-07
1.15048e-05
1.30418e-05
3.83346e-05
5.1395e-05
3.32506e-05
1.97051e-05
1.10367e-05
8.62634e-06
1.94549e-05
1.57034e-05
8.53431e-07
0.00285992
-0.00342403
0.00309482
-0.0037485
0.0045325
-0.00546657
7.75615e-05
-0.0021642
8.51009e-05
0.00202506
9.65189e-05
-0.00158766
5.08139e-05
0.00122446
-9.52363e-05
-3.97772e-05
0.00043727
-2.41657e-05
-0.000706501
0.00466405
7.13713e-05
-0.00357735
-0.000231286
0.00436157
0.00571158
0.000233567
-0.00542127
-0.000315987
0.00654324
0.00792057
0.000371166
-0.00775079
-0.000424282
0.00900223
0.0110178
0.000500326
-0.0107684
-0.000552933
0.0117976
-0.0143615
-0.000688176
0.0143781
-0.0186974
-3.24302e-05
-0.000635505
-0.000130775
-2.73359e-05
2.3242e-05
3.1806e-05
2.85191e-05
2.61531e-05
2.5077e-05
-1.26803e-05
1.04008e-05
0.000580392
0.000616264
0.000622797
-0.000166375
0.000789666
-2.87805e-05
-3.32889e-05
0.000812719
-0.000144626
0.000766889
-0.000242627
3.11599e-05
-6.38856e-05
6.45964e-05
-1.60307e-05
2.32653e-05
-6.92513e-06
-0.00235727
8.87154e-05
6.24845e-05
1.90914e-05
3.33644e-06
9.42344e-07
-0.000429455
0.00042922
1.54962e-05
-0.000356052
0.000566284
-0.000129934
4.14816e-05
5.91628e-05
8.46177e-06
-8.33204e-05
0.000785745
-0.00231952
0.000150217
-0.00156851
-0.000186388
0.0022607
0.00279306
3.56355e-05
-0.00245602
-0.000146822
0.00384027
0.00011663
-0.0036726
-0.000227997
0.00461738
0.00559025
0.000237363
-0.00548206
-0.00032461
0.00652432
-0.00781911
-0.000432389
0.00898195
0.000345758
0.00027662
0.000205539
0.000138027
7.25529e-05
4.23428e-05
-2.02615e-05
2.74397e-06
1.97217e-05
5.01366e-06
-1.08035e-05
-5.42373e-05
-3.8005e-05
-1.35474e-05
-1.46939e-05
-6.3835e-05
-4.97138e-05
-0.000129545
-0.000119079
-0.000182452
-0.000206183
-0.00106401
-0.00153398
-0.00243663
-0.00263833
-0.00474676
-0.00406302
-0.00234323
-0.0087316
-0.0262913
0.00169547
-0.0417407
-0.0310789
-0.0233693
-0.0155928
-0.0137785
0.00523657
-0.012199
-0.000769624
0.00307284
0.000306537
-0.000217915
0.0148974
-0.0173476
0.0200114
0.000182132
-0.00245834
0.00374781
0.00829219
0.000306371
-0.00576707
0.00776223
0.00775187
0.000322584
-0.00616676
0.00800051
0.00728031
0.000237686
-0.0082591
0.00910083
-0.000415449
0.000331273
0.000687436
0.00405938
-0.0172346
-0.0248289
0.000965612
0.0211736
0.000476732
0.00021602
0.0134178
0.000144981
-0.0219705
0.0250849
7.48282e-06
-0.0267602
0.0157896
-0.0161761
0.0141754
-0.00246261
-0.0175718
0.00062077
-0.0210173
0.028811
-0.0252253
0.0236132
-5.18426e-05
-0.0236506
3.67426e-05
0.0234286
-7.02487e-05
-0.0235329
1.4183e-05
0.0236389
-8.18574e-05
-0.0237276
0.0256665
-0.0294275
0.00199058
-0.0226477
0.031207
0.00161163
0.000897216
-0.00982783
0.010503
-0.0108681
3.14519e-05
-0.00819371
0.00754017
0.000539439
-0.00936878
0.00676171
-0.00791028
0.000622857
0.0152354
-0.00854224
0.00509317
0.00110957
-0.0095837
0.00757034
-0.000163883
-0.000145596
-7.32692e-06
0.000256079
0.0001306
4.85601e-05
1.09222e-05
-4.10893e-06
-1.23113e-05
-1.7659e-05
1.58224e-05
-8.78437e-06
0.000353968
0.000412955
1.13001e-06
-9.4865e-05
-5.86031e-05
0.000737306
0.000254742
-0.000652306
0.000331784
0.000428649
-0.000688752
1.53653e-05
-0.000759028
-6.0674e-05
-0.00019181
-0.000632991
0.000956008
0.00117423
6.0423e-05
0.000221007
-5.30735e-05
3.07535e-05
0.000535708
-0.000575927
-5.87002e-06
-0.000616346
0.000617181
0.000578334
-0.000532827
-2.05359e-06
-0.000698491
1.09515e-07
0.000699273
7.04822e-07
1.96514e-06
-1.70505e-05
2.30945e-05
4.31875e-05
0.000211005
0.00353643
0.00194424
0.00101661
-0.000199525
-0.000604173
-0.000826406
-0.00109717
-0.00155237
-0.00239949
-0.00407179
-0.00417343
-0.00800235
-0.00874296
-0.018703
-0.0306877
-0.0276989
-0.0278545
0.0116058
-0.0167289
-0.00801129
-0.00866066
-0.0254166
-0.0313081
-0.028191
-0.0282031
-0.0281582
-0.0280357
-0.0320049
0.0117609
-0.00186496
-0.0070438
0.0354346
-0.0101295
-0.0232275
-0.0217536
-0.00626643
-0.00765651
-0.0174761
-0.0181198
-0.00275422
-0.00478011
0.000133296
0.000735846
0.000743969
0.000587403
0.000427652
0.000327547
0.000183761
0.000176227
1.6243e-05
0.00011453
-0.00036532
-0.000613237
-0.000847199
-0.00117233
-0.00174229
-0.00299896
0.0005985
0.000407808
0.000318053
0.000559574
0.000578123
0.000468874
0.000462542
0.000319816
0.000403197
0.000247424
0.00252569
0.00384832
-0.00459474
0.00568579
-0.00667047
0.000247903
0.00387639
-0.00330812
0.000164791
-1.12652e-05
-6.60615e-05
-5.56983e-05
-0.00236851
2.95618e-05
-0.000776001
0.000464314
-0.000183224
-3.78993e-05
-5.43712e-05
8.96019e-05
-0.000709127
0.000552146
-3.54874e-06
-1.43435e-06
-1.41934e-06
8.69767e-07
0.000353909
-1.14733e-05
2.27006e-06
2.06466e-06
1.17221e-06
-0.000219932
1.80746e-06
9.16056e-05
5.69929e-05
7.53198e-05
-5.93194e-05
5.23252e-05
-4.87651e-07
5.83512e-06
-0.000219369
0.000709322
0.000690424
-0.000425108
-8.70865e-05
-0.000336565
0.000656841
5.88347e-05
1.74304e-05
2.24393e-06
9.40262e-07
-1.37471e-05
-1.13196e-05
-1.04724e-05
-3.89673e-05
-4.21866e-05
-6.86943e-05
2.8115e-05
-0.000125685
-0.000116374
-0.000175453
-0.000198462
-0.00480405
0.00571533
0.00826902
-0.0096025
0.0117078
-0.0135484
0.000483096
0.00809582
-0.00693342
0.000352386
1.93584e-05
-8.45417e-05
8.16518e-05
-8.24307e-05
0.000166746
-0.000193555
-0.0002061
-0.000196634
-0.000201431
-9.72435e-05
8.43937e-05
0.000261611
0.000325537
0.000146028
0.00395788
0.000129389
0.000143119
6.74654e-05
2.92718e-05
7.58342e-06
-9.04055e-06
-3.52688e-06
-3.58439e-06
-1.11122e-05
1.78172e-05
6.02739e-06
-1.01485e-06
4.1744e-05
1.87198e-05
1.87295e-05
1.05671e-05
-3.66768e-07
1.82147e-05
1.63423e-05
4.38177e-06
8.71452e-06
1.52414e-05
2.49363e-05
1.74722e-05
8.17262e-05
4.02945e-05
6.3043e-05
0.000163847
7.72081e-05
0.000160858
0.000332416
0.000261498
0.000911127
-0.00241999
-0.00294037
-0.000496037
0.00037855
0.000520816
0.000324375
-0.00709472
-0.000157651
-8.73419e-05
-0.000102033
-0.000733009
-0.000254071
0.0162538
-0.000222864
-0.0203039
-0.000157995
-0.000878114
-0.0188753
-0.000863981
-0.0010671
-0.012502
-0.00624368
-0.0102727
-0.0247431
0.00255894
0.00621264
0.000383844
-0.000337787
-0.000290128
-0.000527762
9.79896e-05
-0.014575
0.019439
0.000126626
-0.00434596
0.00197783
0.00661232
4.61972e-05
-0.00827157
0.00527693
0.00533301
-1.52467e-05
-0.00853074
0.00563308
0.00472918
-6.89603e-05
-0.00784884
0.00189357
-0.0115069
0.00555436
0.00861642
-0.0108177
0.00319401
0.00137159
-0.000643429
-0.000110992
-1.86064e-05
3.19749e-05
3.63062e-05
2.99344e-05
2.58614e-05
2.15677e-05
1.1481e-05
2.05882e-05
7.97767e-05
0.00416167
-0.0050358
8.92242e-05
0.00609488
-0.00733079
0.00657659
-0.00786049
0.00932103
-0.0110061
0.00012206
-0.00452731
0.00013472
0.00434183
9.41392e-05
-0.00313529
0.000115623
0.00303388
1.76851e-05
9.47034e-05
0.000988168
-7.43586e-05
-0.00142683
0.00967667
0.000260326
-0.00739371
-0.000423915
0.00867997
0.0112497
0.000503457
-0.0105947
-0.000546304
0.0143844
0.000790859
-0.01425
-0.000758707
0.0143615
0.0182795
0.000770149
-0.0223383
-0.000262095
-0.0185767
-0.0220915
0.000905794
0.0177596
0.0147507
-0.0182478
-0.000198031
-0.000634145
0.000541664
0.000448217
0.000374727
0.000291342
0.000209263
0.00013255
5.88212e-05
9.75238e-05
2.42254e-05
-1.62554e-07
3.3041e-05
-4.20004e-08
0.0087612
-0.0104183
0.000166536
0.0122193
-0.0143855
0.0128542
-0.014889
0.0172918
-0.0189755
-0.000563542
-0.00828685
-2.10898e-05
0.00839265
5.56842e-05
-0.00642058
0.000112246
0.00605503
-1.60093e-05
0.000247735
0.00219556
3.50989e-05
-0.00238249
0.0180447
0.000442598
-0.0131388
-0.000754861
0.015057
0.0181721
0.000761642
-0.0229618
-0.000162713
-0.0163907
-0.0294305
0.000189455
0.0224537
-0.00181406
0.00970034
-0.000179561
0.00664707
0.00542736
0.00280673
0.00178229
0.012383
-0.00746998
-0.000429601
0.00115192
0.000635459
0.000470227
0.000376963
0.000288189
0.000198563
9.80265e-05
6.61376e-05
0.0014216
-0.00098795
-0.00160833
-0.000378034
0.000308522
-0.000845002
0.00271192
-0.00116452
-0.00140246
-0.00138023
-0.000832539
0.00203895
0.00227589
0.000146199
-0.00158698
-0.000176515
0.00271065
4.39563e-05
-0.00241098
-0.000147062
0.00321727
0.0038602
0.000130344
-0.00370955
-0.000234187
0.00458628
-0.000390444
-0.000303034
-0.00454591
-0.000167452
-0.00303562
0.000646258
0.000651328
0.000196933
-0.00108576
-0.00179416
-0.00119311
-0.000888849
-0.00190555
-0.00061596
-0.000326386
0.000185771
4.2297e-05
0.00332181
2.36537e-05
-0.00241531
-0.000153742
0.00304032
0.00394281
0.000111145
-0.00368661
-0.000225528
0.00556073
0.000239179
-0.00543101
-0.0003204
0.00655068
0.00797194
0.000353389
-0.00946446
-0.000585368
-0.000442493
-0.00666051
0.00100036
0.00100583
0.000832203
-0.000189777
-0.0029809
-4.04603e-05
-0.00176993
0.000204226
-0.000465964
-0.00060504
8.41041e-05
0.000609978
-0.000302051
-0.00366164
0.000392367
4.38873e-05
0.000676628
-5.59103e-05
0.00676318
0.000164865
-0.00521831
-0.000322612
0.00622425
0.00814617
0.000360673
-0.00771394
-0.00041581
0.0109187
0.000533122
-0.0106816
-0.000560023
0.0117884
0.0146062
0.000723639
-0.0173061
0.000403268
-7.06113e-05
-2.5577e-05
2.29947e-05
1.91139e-05
1.27275e-05
7.67756e-06
4.25534e-06
-4.27319e-06
-3.99769e-06
1.64408e-05
3.65646e-06
-3.30178e-06
6.05974e-06
2.07922e-05
4.75789e-05
7.53502e-05
3.85229e-05
1.45243e-05
4.18762e-06
4.59854e-06
-2.943e-06
1.28437e-06
0.00357535
2.98081e-06
-0.00356488
0.00430224
5.3313e-06
-0.00524145
0.00525785
-0.00428713
0.00434334
7.3702e-06
-0.005312
0.00523973
-0.00430259
0.00356699
-5.32386e-06
-0.0036262
0.00292905
-0.00291019
0.00291886
-0.00292275
1.06243e-05
-0.00355939
0.00363833
1.07498e-05
-0.00433323
2.58246e-06
-0.00522945
0.00533269
1.20649e-05
-0.00637858
-1.09158e-06
-0.00759474
0.00772908
-0.007607
0.00763142
8.6378e-06
0.00632429
-0.00630104
5.67791e-06
0.00639405
1.75042e-05
-0.00769895
0.00761002
-0.00630361
-2.94367e-05
-0.00600614
0.00368247
1.35925e-05
0.00488992
-3.06876e-05
-0.00411907
0.00255629
1.87645e-05
0.00334753
-0.00294776
0.00245287
-1.0039e-05
-0.00249167
-2.06045e-07
0.0024376
1.80768e-06
-0.00243191
7.56522e-06
0.00249687
1.3023e-05
-0.0024476
0.00295814
-0.00334798
3.08346e-05
3.59584e-05
2.63527e-05
9.55143e-05
6.07242e-05
-0.00122241
0.00126464
-0.00124509
0.00124617
2.43711e-07
-2.89082e-06
-2.86626e-06
-0.00126395
0.00122341
-6.0291e-05
-3.43399e-05
0.000634376
-0.000710861
2.14389e-06
-4.87816e-06
0.00216389
-0.00218961
0.00219355
-0.00216107
0.00223976
-0.00233411
-5.41871e-05
-1.5562e-05
-0.000633168
3.50541e-05
0.000711042
-2.97535e-05
2.01776e-05
1.73186e-05
3.76418e-06
6.59766e-06
1.03816e-05
1.34286e-05
1.30432e-05
-0.00905257
9.98334e-06
-0.010741
0.0107731
-0.0108627
0.010764
2.70213e-05
0.00919417
-0.00904659
-2.55469e-05
-0.00869375
0.0053232
2.6103e-05
0.00717018
-0.00442201
-0.000135071
-0.00343856
0.00398515
-0.000276734
-0.00499061
0.00574157
-0.000336162
-0.00702394
0.00814911
-0.000309667
-0.00954889
0.0112794
-0.000397279
-0.0128612
-0.00113162
-0.000355609
-0.000588394
-0.00018994
-0.000418725
-0.000178305
-0.000335078
-0.000152093
-0.000257153
-9.92017e-05
-0.000167873
0.00277584
-0.00301645
-9.56555e-05
-0.0022824
0.0020616
7.70839e-05
9.64243e-06
-0.000173969
-2.67562e-05
-0.00126637
-6.00333e-05
0.00189955
9.32395e-05
-0.00286561
-2.47034e-05
-2.93858e-05
0.00015572
8.33532e-05
-0.000114739
-0.00121917
0.00184862
0.000597422
0.00207958
0.000751909
0.000427825
8.11521e-05
0.000270047
-0.00182968
0.00233518
-0.00223511
5.51708e-05
7.35769e-06
-0.000102467
-2.51629e-05
-5.80512e-06
0.000108958
0.000110057
0.000141151
0.000192773
5.00852e-05
-0.0122729
0.00752233
-0.00636076
0.0103143
2.33461e-05
7.26643e-06
-7.59376e-06
3.55118e-06
1.50793e-05
2.96829e-05
4.33816e-05
5.56373e-05
-1.01797e-05
-0.0125694
3.41512e-05
-0.0147939
0.0147152
-0.0167611
0.010285
9.26047e-05
0.0144125
-0.0089076
-0.000146982
-0.000155152
0.00073618
0.000575431
0.000580166
0.00080957
0.0109822
0.0160422
-0.0186963
0.00187019
0.000160158
-2.54902e-05
0.000501458
-0.000113722
2.67423e-05
-0.00980785
0.000198413
0.000938915
-0.0134342
0.000671241
0.000105786
5.13867e-05
0.000106701
0.000218089
0.000317416
0.000153062
6.32756e-05
3.2077e-05
2.70295e-05
2.48876e-05
3.53037e-05
4.70806e-05
3.16044e-05
2.60979e-05
3.12518e-05
2.21526e-05
1.85949e-05
-7.2102e-07
1.3807e-05
1.36549e-05
0.000117579
3.74302e-05
2.80109e-05
1.92503e-05
1.81798e-05
1.10143e-05
7.45312e-06
1.97234e-05
2.65393e-05
1.32708e-05
-0.000117414
2.76278e-05
3.70366e-05
2.85455e-05
4.72574e-05
7.25829e-05
7.80615e-05
0.000132342
6.82231e-05
0.000128739
6.48302e-05
0.016417
-0.0192111
0.000260611
0.0209279
0.000391421
7.80866e-05
0.000218981
0.00129543
-0.00393241
0.012644
-0.0104762
0.0220869
0.00320158
0.0138057
-0.0118777
0.0101438
-0.010051
0.00706565
0.00801826
-0.0109159
0.00247187
-0.0117373
0.00746506
0.00772353
0.0146057
-0.000757372
-0.000283963
-0.00183325
-0.000123126
-0.00752
-0.000147753
-3.45106e-05
3.90053e-05
5.42984e-05
9.28396e-05
5.22552e-05
4.26841e-05
5.08045e-05
4.1787e-05
-2.38722e-06
4.21385e-05
3.48723e-06
0.000279953
0.000193637
0.00014086
-0.0115794
0.0134655
0.000358262
-0.0100886
-0.000556526
0.0117455
0.0148292
0.000708845
-0.0140589
-0.000731189
-0.0171681
0.000451743
0.000379569
-1.95405e-05
1.36527e-05
-6.13559e-07
0.00023481
4.47406e-05
2.36414e-05
3.14737e-05
2.50676e-05
-8.21943e-06
0.00021367
0.000137254
6.3847e-05
-0.00293209
-0.000162399
0.00321926
-1.75651e-05
0.00234191
-0.00181736
-0.00171104
0.00207435
-0.0012899
-0.00119205
-0.00107046
0.000203436
-0.000300403
-0.000337237
-0.00457402
0.000848771
-0.000349495
-0.000999903
0.000569379
0.00108911
-0.00046025
-0.00811636
0.00075329
0.000137496
0.00142719
-6.28857e-05
-0.00194977
-0.000566316
0.00104398
0.00170119
0.00137511
-0.000489791
-0.00676703
-0.000442133
-0.00658092
0.00121255
-0.000648275
-0.00965475
-0.00058526
0.00903003
0.00136615
-0.000841413
-0.0133092
-0.000477942
-0.0160892
0.00195077
0.000772201
0.00418882
0.000316251
-0.0218957
0.000829723
0.00203602
0.00233289
0.00354116
0.0132455
0.0311213
0.0163151
0.0240292
-0.00200815
-0.00114984
-0.0177618
0.00121333
0.000586706
0.00239416
0.0160725
0.0233375
-0.00195536
-0.00106745
-0.000763009
0.0119329
-0.0129048
0.00126873
0.00118682
0.000930192
0.000102356
0.00177666
0.01479
0.0235346
-0.00201813
-0.00108032
-0.000768276
-0.0130097
-0.000937303
-0.000724347
-0.000559226
0.000804524
0.000595735
0.000350236
1.43987e-05
0.000243081
0.00101171
0.00117947
0.00120268
-0.00118072
-0.00150543
0.00169194
0.0134918
0.0263185
-0.00461198
0.00518549
0.00229707
0.00208617
0.000290316
-0.000147761
-7.37474e-05
-3.69471e-05
-2.0175e-05
-1.19446e-05
-4.51169e-06
1.02271e-05
2.25318e-06
8.43699e-07
-2.5599e-06
1.08e-05
6.18278e-06
6.69448e-06
-5.06138e-06
-8.92568e-05
-0.000157423
-0.000107172
1.8306e-05
4.07315e-05
-0.00489489
0.0043211
1.54187e-05
1.43431e-05
1.58244e-05
1.9763e-05
1.21648e-05
1.95843e-05
4.4221e-05
-2.07665e-05
0.00062891
-0.0025261
0.000170211
7.87139e-05
9.84614e-06
1.42148e-05
1.67754e-05
-1.11875e-06
-1.02948e-05
2.08547e-05
1.58692e-05
1.3603e-05
1.07673e-05
1.46041e-05
1.6234e-05
4.87048e-05
4.63431e-05
0.0146714
2.9084e-06
-0.0146405
0.0168838
-2.34496e-05
-0.0191423
0.0191381
-0.016856
0.0171432
2.15419e-05
-0.0193139
0.0193028
-0.0168094
3.54231e-05
0.0194767
-0.0121733
-4.09602e-05
-8.74639e-05
0.00012875
0.00026325
0.000274797
-0.000295481
-0.00144243
-0.00292749
-0.00576769
8.62608e-05
-0.00225774
-0.000877513
-0.000266292
0.00028667
0.000263158
3.99801e-05
5.2533e-05
5.79437e-05
3.24336e-05
0.0127943
-0.0125857
0.0126232
-0.0127644
-1.79413e-05
-0.0146513
0.0148311
7.87274e-07
-0.01713
-4.8415e-05
-0.0192128
0.0193341
-1.72167e-05
-0.0219631
0.0216293
-0.0248636
-2.15578e-05
-0.000158646
-5.73216e-05
1.99262e-05
3.6047e-05
0.000127035
0.00030025
0.000821488
0.00437051
-0.00230518
0.0586788
-0.00154098
-0.000273901
-0.00110558
-0.0113699
0.0025035
0.00659059
0.00052201
-0.000116622
-0.00592951
-0.00014047
0.000146883
0.000323599
2.71478e-05
3.45521e-05
0.000552392
0.000318042
-0.0188615
0.0164261
-0.000760849
-0.000471571
-0.000127675
0.00329454
-0.000853565
0.00270709
0.00440947
0.00773643
0.0149662
0.00335803
-0.008583
0.00345985
-0.0117069
0.00274851
0.00131294
-0.00820749
0.000562935
-0.000142186
1.43245e-05
-2.84959e-05
1.22659e-05
0.00012957
-8.14951e-05
-0.00019554
-5.82814e-05
-0.000217068
-5.1571e-05
8.69686e-06
-2.20182e-06
1.43225e-05
-9.75084e-06
-2.38655e-06
-4.44664e-05
6.01685e-06
7.10855e-05
0.000150876
0.000396559
0.00616167
0.0263157
0.00140946
-0.00371146
0.0168439
0.000594826
-0.00271319
-0.00153291
-0.00249461
0.0582965
-0.0012605
-0.00029329
0.000480663
0.000120099
0.000280536
-0.00539919
-0.000158273
-0.000154736
-0.00116602
-0.0114686
-0.0104465
-0.00666166
-0.0239733
0.00254289
0.00586002
0.000266354
-0.000334083
-0.000355012
-0.00020796
-0.00656698
-0.000345312
0.00320007
-0.00207369
0.00343118
-0.000225892
-0.00602517
-0.000371249
-0.000169587
-4.10714e-06
0.000460867
0.00205496
0.00049245
0.000548256
0.00196975
0.0019081
0.000231455
-0.000108435
-2.80982e-05
5.37205e-05
0.000166569
-9.09304e-05
-2.0141e-05
0.00127923
0.0203899