/*--------------------------------*- C++ -*----------------------------------*\
| =========                 |                                                 |
| \\      /  F ield         | OpenFOAM: The Open Source CFD Toolbox           |
|  \\    /   O peration     | Version:  2306                                  |
|   \\  /    A nd           | Website:  www.openfoam.com                      |
|    \\/     M anipulation  |                                                 |
\*---------------------------------------------------------------------------*/
FoamFile
{
    version     2.0;
    format      ascii;
    arch        "LSB;label=32;scalar=64";
    class       volScalarField;
    location    "2.3";
    object      gradTx;
}
// * * * * * * * * * * * * * * * * * * * * * * * * * * * * * * * * * * * * * //

dimensions      [0 -1 0 1 0 0 0];

internalField   nonuniform List<scalar> 
5322
(
-0.0182778
0.000994425
0.00106326
-5.81515e-06
-7.32587e-05
-6.45197e-05
-4.61448e-05
-3.30235e-05
-2.50506e-05
-1.65633e-05
-9.52054e-06
5.97344e-05
8.6045e-05
-0.00117452
-1.8751e-05
0.00218094
-0.00170199
1.18777e-05
-0.00138781
0.00120929
-0.00161902
0.00201137
-0.00212681
0.0030704
-0.0031831
0.00428754
-0.00432168
0.00610591
-0.00612999
0.00806582
-0.00766521
0.0111266
-0.0082285
0.0156865
0.001295
0.022994
0.0163029
-0.0064615
0.0179096
-0.00106419
-0.0169984
0.0170445
-0.0010322
-0.0181231
0.018031
-0.000616404
-0.0192595
0.0169602
-0.000400505
-0.0202186
-0.0200743
-0.0288358
-0.00953579
0.018269
-0.0012047
-0.0298495
-0.000916333
0.028372
-0.000342955
-0.0283666
-0.000123117
0.0276335
-0.000145191
-0.0278596
2.74145e-05
0.027265
0.000404632
-0.027592
0.00144493
0.0227571
0.00130712
-0.021839
0.0248015
-0.0255633
0.024599
-0.0250613
0.0250828
-0.0250953
0.0285873
-0.0209438
0.00986989
-0.0151532
-0.0102139
0.0160018
0.00134264
-0.00715294
0.0116048
-0.0320434
-0.0102012
0.0353274
-0.00160086
0.000361338
0.000631572
0.00401373
0.0210062
-0.0042128
0.00024895
-0.00155512
0.0119422
-0.0283039
-0.0282464
0.0582176
-0.00156746
0.016251
0.0265296
0.000538388
0.000280284
0.000218763
0.000107792
3.58544e-05
4.24702e-06
-7.70333e-06
-1.40429e-05
-1.87153e-05
1.61372e-05
-9.90534e-06
-0.00070548
-0.000682538
8.68818e-05
0.00042556
1.73664e-05
0.000629165
-0.000755123
-5.85513e-05
-0.000188822
0.00117464
0.000956656
0.000254485
0.000751798
0.000474772
0.000356496
0.000807833
0.000394765
0.000424781
0.000821768
0.000342587
0.000678507
0.000934934
0.00105373
4.43035e-05
-0.000782877
3.59705e-05
0.000536704
-0.000660555
-0.0007206
0.000116426
0.000281239
0.000147241
-0.000563105
-0.000620833
0.000132457
0.000167703
0.000207348
-0.000613909
-0.000577495
0.000133901
0.000103447
0.000338483
-0.000653241
0.000859678
-0.0019312
-0.00255799
0.00252472
-0.00330479
-0.000164472
-0.0019714
3.63643e-05
0.00179611
-0.000418385
0.00194977
0.000961149
0.00144047
-0.00231838
0.00086952
-0.00200112
0.00150399
0.00195521
-0.00272424
0.000176677
-0.00231537
0.00244213
0.00303672
-0.00384349
0.000155476
-0.00322214
0.00371988
0.00454647
-0.00558974
0.000242209
-0.00466803
0.00547992
0.00666187
-0.00806435
0.000343101
-0.00673885
0.0077489
0.00945363
-0.0114035
0.000459692
-0.0095503
0.0104782
0.0129166
-0.0157046
0.000610889
-0.0131335
0.0134991
0.0169314
-0.0207365
0.000838514
-0.0171158
0.0162284
0.0202189
-0.00373573
0.0114248
-0.0280292
-0.0285856
0.0584877
-0.00246353
-0.0026364
0.000732829
0.00435798
0.0209085
-0.00314066
0.000461222
-0.00371667
0.0109495
-0.0285076
-0.02811
0.0581329
-0.00202302
0.0162435
0.000224391
0.000450182
0.000260777
0.000141441
5.58439e-05
1.38991e-05
-3.53802e-06
-1.24091e-05
-1.70017e-05
1.59583e-05
-9.44721e-06
0.000554125
-0.000617963
0.000618459
-0.00055395
2.25943e-06
0.000552895
-0.000516606
-9.08301e-07
-0.000626071
9.46805e-07
-0.000550452
1.05352e-06
0.000518027
2.09085e-05
0.000583489
-4.86471e-05
-0.000633495
1.31388e-06
0.000626143
-2.23316e-07
4.69146e-07
0.00114203
-0.0020831
0.00208376
-0.00205577
0.00243515
-0.00287322
0.00357175
-0.00426056
0.00524499
-0.00627049
0.00763414
-0.00902745
0.0108548
-0.0125959
0.0149739
-0.0169338
0.01989
-0.0215752
0.0250052
-0.0144163
0.000357249
0.0146079
0.000422038
-0.0243506
0.0210273
0.000124585
-0.0192843
0.0165885
7.716e-05
-0.0145161
0.0123627
4.76518e-05
-0.0105258
0.00885817
2.86006e-05
-0.00740329
0.00614816
1.84579e-05
-0.00508171
0.00417737
1.45589e-05
-0.00344936
0.00283319
1.13962e-05
-0.0023405
3.00352e-06
0.00234491
-0.00282699
-9.59126e-06
-0.00242715
0.00205655
-4.26562e-06
-0.00115029
-7.46199e-05
0.0011683
-0.00215776
0.0023388
-0.00283235
0.00340042
-0.00411946
0.00501664
-0.00602563
0.00732531
-0.00865498
0.0104571
-0.0120545
0.0145267
-0.0161246
0.0194807
-0.0202491
0.0245991
-0.0142443
-0.00345787
0.0060094
0.000677885
-0.0229004
0.0184079
0.000161048
-0.0176153
0.0149476
-5.39362e-05
-0.0128521
0.011051
-9.08284e-05
-0.00924753
0.00786231
-7.92146e-05
-0.00650845
0.00546278
-7.50825e-05
-0.00447235
0.00375046
-7.61078e-05
-0.00303803
0.00259397
-9.10713e-05
-0.00206329
0.00168817
2.34065e-05
-0.000577718
0.000967846
0.0016003
-2.19094e-05
0.000179717
-0.000294899
0.000873346
-0.00269937
0.00230448
-0.00330753
-0.00222818
-0.00277156
0.000187685
0.00159608
0.00177548
-0.00226668
0.000836603
-0.00201594
-0.000176819
8.15769e-05
-0.000772471
6.31953e-05
-3.21302e-05
-0.000802835
3.05047e-05
-0.000169006
-0.0020638
-0.00223887
0.00182258
-0.00269173
-6.78553e-05
0.00293784
-0.00381373
0.00446693
-0.00555707
-0.000235426
0.00658749
-0.00803012
0.0093624
-0.011367
1.58008e-05
0.0127733
-0.0155953
0.0166355
-0.0202977
0.00420259
0.000723069
0.000204114
0.000245667
-0.000101833
4.68891e-05
0.0132429
-0.0160089
0.000714058
-0.0129872
0.0125282
0.0173592
-0.020376
0.00110143
-0.0179158
0.0143523
0.0288107
-0.00251558
0.00133641
-0.030727
-0.0285423
0.0555391
-0.00374188
0.00058505
0.00105286
-0.0135867
0.002704
0.00815002
-0.00846816
0.000568164
0.00658703
-0.00587977
2.4913e-05
0.00462416
-0.00430342
-5.12532e-05
0.00306177
-0.00294162
-0.000103822
0.00219593
-0.00195815
-0.000140827
0.00159955
-0.00110982
-0.000159454
0.00143378
0.00050923
0.000362652
-7.16761e-05
-3.58544e-05
0.000707233
-0.00029872
0.00365517
-0.00465107
0.00554775
-0.00677793
-0.00438117
-0.00570968
0.000246243
0.00364525
0.0045885
-0.00391485
0.000159737
-0.00301705
-0.000109762
-5.6019e-05
-1.09638e-05
-5.70218e-05
-8.09404e-05
0.000168566
0.00012059
6.77158e-05
-0.000529743
-0.000152699
0.000939357
0.00139153
0.00117773
0.000410101
0.00192362
0.000716502
0.000554143
0.000401072
-0.000275973
-0.000779847
-0.00109438
-0.00053119
0.000415905
-0.000599008
6.41222e-05
0.00104528
-0.00093593
0.00816345
-0.00978798
0.0116497
-0.0139443
-0.0091258
-0.0117078
0.000493544
0.00743503
0.00966582
-0.00826191
0.000355231
-0.00636035
-0.00015698
-5.57406e-05
-7.41674e-05
-0.000105147
-0.000261443
-2.43568e-07
-6.26481e-05
-0.000180329
2.29103e-05
1.07527e-06
0.000820261
3.7742e-05
-8.51605e-05
-1.52156e-05
2.29529e-05
1.20321e-05
-5.4202e-05
0.000120195
-0.00138176
-5.47185e-05
-1.73878e-05
-6.32487e-06
-1.83712e-05
0.00288158
1.1042e-05
-0.0035607
0.00345974
-0.00416263
-7.04311e-06
0.00428196
2.16877e-05
-0.00522778
0.00510536
-0.00611893
1.6332e-06
0.00631304
3.45799e-05
-0.00760487
0.00745154
-0.00880392
1.52526e-05
0.00910663
5.4043e-05
-0.0108091
0.0106159
-0.0122679
3.93994e-05
0.012735
7.35974e-05
-0.0149067
0.0146654
-0.0164357
8.44504e-05
0.0171289
3.83193e-05
-0.0197729
0.0194693
-0.0208387
0.000136204
0.0216564
-0.000169127
-0.0247759
0.0244288
-0.0144835
-3.09958e-05
0.0143649
-0.000993571
-0.00231495
-0.00190221
-0.00275914
-0.0283147
0.00607844
0.00420344
-0.0022157
-0.00446628
-0.00157349
-0.0238974
0.00539763
-0.00913752
-0.0126704
-0.00272624
-0.0038269
-0.00489061
-0.00264589
-0.00140315
0.000667173
-0.000798484
-0.00161271
-0.00151393
-0.00102644
-0.000772712
-0.000585018
-0.000159116
0.0011133
0.00120686
0.00120398
0.00138557
0.0017999
0.00171676
0.0012796
0.0012886
0.000868409
-0.000765806
0.000243194
-8.80322e-05
-6.13152e-05
0.000220864
-0.000667347
-1.45663e-06
-6.65832e-07
-1.63687e-06
1.0713e-06
-0.000424623
-0.000487406
-0.000484308
-0.000428572
0.000427394
-0.000354152
1.53956e-05
0.000489004
-0.00041289
-0.000413443
1.55714e-05
0.000486146
8.72375e-07
1.94295e-06
2.17483e-06
1.97276e-06
-1.75104e-05
1.52515e-05
-7.14923e-06
-3.0899e-06
6.99479e-06
2.64653e-05
6.43906e-05
5.99966e-05
-4.28315e-05
-0.000386517
0.000249274
-0.000256593
0.00181415
-0.00254707
0.0162913
-0.0192804
0.0223675
-0.000244756
-0.00639469
-0.0011859
0.00177577
2.66134e-05
0.000431987
0.000738311
-0.002492
-0.00444926
-0.00856319
-0.0197891
-0.0203586
-0.0468997
-0.0193905
-0.0165914
-0.000326307
-0.00643128
0.00585213
-0.0408474
-0.0248553
-0.0120252
0.0179279
0.00143331
0.000782424
-0.0183873
0.0193699
0.000126999
-0.00239152
-0.0200774
0.0194393
3.90956e-05
-0.00264363
-0.0196007
0.0193835
0.000159803
-0.00425317
-0.0187091
0.0138353
-0.0117846
0.010182
0.0077627
0.0220842
-0.0103843
-0.00579728
0.00325475
0.012605
-0.0386574
-0.00191142
-0.0224716
0.0215295
0.0206108
0.0190053
0.0240061
0.0107346
0.00179189
0.00877205
0.0128516
0.0203233
-0.00728039
0.00180183
0.0122158
-0.00810254
0.000112698
0.00824323
-0.00628304
-9.48198e-06
0.00593821
-0.00443307
1.67164e-05
0.0042543
-0.00307223
1.76552e-05
0.00297169
-0.00212242
-2.72286e-06
0.00198618
-0.00155749
-9.43468e-05
0.00120043
-0.00135743
-0.00047375
6.04744e-05
-0.00159939
-0.000984555
0.000585346
-0.00168648
0.00209498
-0.00257544
8.95251e-05
-0.00233997
0.00215647
-1.81999e-05
-0.00116512
7.55924e-05
0.00115271
-0.00113975
6.34034e-06
8.67522e-06
3.35994e-06
3.91157e-06
7.90837e-06
1.2682e-05
3.70197e-05
5.6795e-05
9.22401e-05
-0.000326271
3.28486e-05
-0.000134474
0.00141507
-0.00145109
8.98771e-05
9.68073e-05
0.000516461
0.000529103
0.00528593
0.00678712
-0.000234354
-0.00465617
0.00548831
0.000345235
-0.00672754
0.00774125
0.000464434
-0.0095696
0.0104415
0.000620397
-0.013279
0.0134107
0.000841063
-0.0175632
0.000274853
0.000586866
-0.00291932
-0.0029132
-0.00806553
-0.00414383
-0.00239668
-0.00149807
-0.00103334
-0.000789811
-0.000598558
-0.000176588
0.0010883
0.00116681
0.0011527
0.00171827
0.00104396
-0.00017682
-0.000580619
-0.000798204
-0.00106804
-0.00152817
-0.00238897
-0.0040958
-0.00775768
-0.0179016
-0.0187732
-0.0324172
-0.0260302
-0.00863637
-0.00861086
0.0163181
0.00175333
-0.00203469
-0.00162497
0.00769801
0.00026846
-0.00624811
-0.00597117
0.00612751
-8.70532e-06
-0.00685553
-0.00655254
0.00540104
2.10993e-06
-0.00851407
-0.00811704
0.00269753
-0.0116732
0.00800329
0.00776998
0.00811696
0.00710099
-0.00999761
0.000765847
0.00358376
-0.0116106
0.00267917
-0.0108728
0.0125217
-0.0274596
-0.00119627
-0.0264338
0.0199117
0.0211917
0.0205038
0.0201079
0.020495
0.0200056
-0.0286203
-0.0014439
-0.0258138
0.0166679
0.0178797
0.0167404
0.0176549
-0.00119623
-0.0275389
-0.0273571
0.0125557
0.0205541
0.0189175
0.0180476
0.0225184
0.0222886
0.0173884
0.0050201
0.0104971
0.00441572
-0.00243822
0.00416385
0.000904393
-0.00305527
0.00237157
0.000301027
-0.00243636
0.00174609
0.000197572
-0.00185474
0.0012392
0.00012359
-0.00131716
0.000904398
0.000104679
-0.00094224
0.000593956
3.1562e-05
-0.000673862
0.000383144
-4.70135e-05
-0.000590106
0.00014785
-0.000329407
-0.000835234
-0.000383652
-0.00115741
-0.00139832
-0.00140336
-0.000943973
-0.000683001
-0.0010599
-4.34659e-05
0.000786484
-0.000587548
5.88965e-05
0.000648893
-0.000645725
2.77207e-05
0.000675388
-0.00069359
-2.39939e-05
-4.89416e-05
-0.00123782
-4.41351e-06
-0.00213367
3.45509e-06
-0.00237382
1.61451e-05
0.00286828
-0.00290877
-2.35881e-06
-0.00342356
8.2879e-05
0.00415506
-0.00377124
8.61342e-05
0.00455104
7.5849e-05
-0.00549456
0.000119323
0.00659439
9.16927e-05
-0.00787693
0.000158978
0.00931415
6.42763e-05
-0.0109649
0.000196508
0.0127337
6.22387e-05
-0.0147415
0.000253242
0.0168309
-0.00013521
-0.0189134
0.000433177
0.0212512
-0.000215775
-0.000667833
-0.0265391
-0.0192212
0.000772564
0.0219041
-0.000312795
-0.0206563
-0.0143403
0.000644982
0.0175564
-0.00019067
-0.0155697
-0.0107106
0.000409696
0.0131888
-0.000147488
-0.0113583
-0.00777625
0.000277153
0.00953425
-8.75822e-05
-0.00799192
-0.00547855
0.00017902
0.00666574
-6.34806e-05
-0.00546262
-0.00375332
8.66656e-05
0.0046053
-2.1848e-05
-0.00361483
-0.00252898
3.94268e-05
0.00328294
4.28547e-05
-0.00229235
-0.00163257
0.000161911
0.00268502
0.000305662
-0.00019689
0.000586462
-0.000986399
-0.0016042
6.31511e-05
-0.00048089
6.38607e-05
0.001411
-0.000115344
2.14367e-05
-0.0011751
7.44148e-06
0.0021387
-0.00208707
-7.92059e-06
-0.0023563
9.23647e-05
-0.00260772
5.14664e-05
0.00310398
0.000112511
2.87521e-05
1.59983e-05
2.83602e-05
0.00246857
2.2308e-05
-1.76977e-05
-0.000518424
-1.31699e-06
0.000566486
1.24929e-06
2.29057e-06
2.89348e-06
-8.80926e-05
-0.000102272
-7.34877e-05
-0.000786099
2.65031e-05
-0.00016695
-6.5021e-05
-6.20142e-05
-6.80677e-05
0.00298832
0.00246746
-6.52984e-05
0.000218496
5.95519e-05
3.51204e-05
0.00160661
0.000181076
-0.00233097
0.00249682
0.000156059
-0.0032204
0.00374741
0.000242212
1.79165e-05
-0.000129109
-0.000143977
-0.00018282
-0.000198029
-0.000233323
-0.000209043
-0.000188504
-0.000132525
-0.000141326
-0.000132098
-7.11662e-05
-8.0589e-05
-0.00228935
0.00243863
0.00389952
-0.00464623
0.00576186
-0.00675267
-0.000112926
-0.00441147
1.23439e-05
0.00383035
-0.00010682
-0.00301663
-5.5589e-05
0.00276243
-3.12213e-05
7.02383e-05
-0.00226139
-0.000103202
0.00274046
-0.00298417
7.55012e-06
-0.0059621
-3.17002e-05
0.00710447
-0.00625338
1.20855e-05
-0.00760522
1.07135e-05
0.00906675
-0.00894666
3.25241e-06
-0.0105419
7.92214e-06
0.0123611
-0.0127131
-3.19711e-05
-0.014131
7.63965e-05
0.0162175
-0.0185739
-3.79025e-05
0.0208003
-0.0230388
-0.000291533
-0.000652637
-0.000114841
-2.55437e-05
2.21095e-05
3.03669e-05
2.77335e-05
2.53324e-05
2.35076e-05
-1.30982e-05
1.00349e-05
-0.000552676
0.000622109
-0.00061283
-0.000562082
5.46076e-06
5.13811e-06
-1.57715e-05
3.25332e-05
0.000532174
4.20081e-06
-5.93664e-06
-4.85159e-05
6.12331e-05
-5.60986e-05
-0.000768353
2.49475e-05
-0.000201261
0.00142143
0.00019137
-5.51921e-05
-3.88355e-05
2.32712e-05
-2.21946e-06
0.0004106
0.000417431
-1.23536e-05
0.000350953
0.000554756
-9.53881e-06
-1.18278e-05
-1.13895e-05
-4.26325e-05
2.0907e-05
-0.000627822
0.00188591
9.13688e-05
-0.00284823
-2.56066e-05
0.00331949
-0.00292485
-8.28393e-06
-0.0035818
3.36715e-06
-0.00423658
2.8369e-07
-0.0051388
1.80269e-05
0.00619779
-0.0063516
-1.05037e-05
-0.00731292
9.76895e-05
0.00871119
-0.0103366
9.67195e-05
0.0121057
-8.34088e-07
1.20779e-05
1.49788e-05
1.59155e-05
1.44794e-05
1.84527e-05
2.6529e-06
4.99263e-07
-1.4396e-05
-1.49645e-05
-3.75889e-05
-5.85716e-05
-1.27926e-05
-1.38953e-05
4.18328e-06
4.19056e-06
6.22529e-06
8.32489e-06
1.09692e-05
1.5556e-05
1.77848e-05
1.94015e-05
2.85031e-05
3.47256e-05
0.000148921
0.000200706
-0.000520221
0.000269964
-0.000859205
0.00390544
-0.0237289
-0.0064182
0.000160413
-0.0021842
0.0110528
-0.0110328
-0.0338059
-0.0130276
-5.08061e-05
0.00330843
0.000240056
-0.0262016
-0.0114561
-0.00771064
0.015517
0.00172768
-0.00175925
-0.00296708
0.00835001
0.000267151
-0.0058267
-0.00718325
0.00717616
1.21371e-05
-0.00639726
-0.0075374
0.00668035
5.93655e-05
-0.00821161
-0.00855156
0.00164533
-0.000468899
8.13862e-05
8.76238e-05
0.0207791
-0.0188205
0.000278514
0.0171777
-0.000531321
0.000333109
-0.0217109
0.000444649
-0.0134321
0.015428
0.000177949
-0.0166738
-0.0292068
0.0222931
-0.00170337
0.00281257
0.00960043
-0.000147101
0.0224895
0.0164939
0.0185241
-0.0224574
0.000724975
-0.0189802
-0.000164706
-0.0209986
0.000908007
-0.0201212
-0.000172919
-0.0202283
0.000953341
-0.0216036
0.0172332
0.0168855
-0.00113636
-0.0332841
-0.0267405
0.01239
-0.00876534
0.0120176
0.00689866
0.00813706
-0.0107495
0.00298737
0.00230418
-0.011948
0.00451216
0.00820417
-0.0101315
0.0169274
-0.00905175
0.00146309
-0.00901716
0.00143115
-0.00973606
-0.0076179
0.00134272
-0.000631127
-0.0001069
-5.79304e-05
1.16538e-05
4.3714e-05
4.08372e-05
3.19299e-05
2.64848e-05
2.36395e-05
-1.33535e-05
1.0608e-05
-0.000353974
0.000428191
3.78537e-06
8.43444e-05
6.02169e-05
4.87846e-05
-0.000585516
-3.52367e-05
0.000663827
-0.000534459
-0.000285137
0.000666996
-0.000682406
-0.000947448
-0.00106264
0.000779475
0.000785686
-4.48084e-05
-6.43324e-05
-0.000218416
2.71482e-05
0.000808547
-0.000137264
-0.000182065
-0.000126989
0.000616238
0.000617574
-0.000183887
-0.000134952
0.000770409
-0.000388638
-0.000853616
-0.000391113
0.000795997
-2.44478e-05
-3.12076e-05
-8.28375e-05
9.19232e-06
6.62955e-05
0.00141234
-0.000117746
5.92705e-05
-5.1666e-06
-9.80175e-06
-1.55019e-05
-2.24136e-05
-3.55563e-05
-6.50859e-05
-0.000123777
1.61399e-05
-5.77693e-05
9.96771e-05
-0.000766197
-0.000228273
0.000756638
-0.00139619
-0.000518761
-0.000536646
-0.0158649
0.0152446
-0.000449299
-0.000348391
0.000958645
-0.000632579
-0.000355367
0.00274718
0.00510961
0.00270504
0.015692
-0.00741072
0.00165559
0.010984
0.0125928
-0.00384717
0.00117844
-0.000154162
0.000796024
-0.000189354
6.41357e-05
-0.00128064
-0.000106391
5.72345e-05
2.21648e-05
2.44459e-06
-5.69243e-06
8.21889e-06
-6.53907e-06
1.27554e-05
1.82792e-05
1.48004e-05
9.50017e-05
0.000192991
0.000281696
0.000371708
0.000469183
0.000647279
0.000418714
0.000126804
0.000235505
0.0001373
6.26303e-05
2.76414e-05
2.22276e-05
1.28763e-05
2.84535e-05
2.87589e-05
-0.00339625
0.00307151
-0.00371993
0.00449602
-0.00542393
8.99114e-05
-0.00499248
0.00412098
8.02892e-05
1.9524e-05
1.46555e-05
1.19056e-06
0.00283295
2.05941e-05
-1.8868e-05
0.000634845
-9.38424e-06
1.82299e-05
6.22704e-05
-0.000111023
0.000719558
0.000564522
-0.000238539
9.60466e-05
-1.5476e-06
-6.17067e-07
0.000358169
-1.1984e-05
-4.70999e-07
0.000249348
-0.000766013
0.00021872
3.3429e-06
8.79447e-05
6.39217e-05
6.93473e-06
-6.3645e-05
2.87654e-05
6.01584e-05
-0.000239001
-0.000219507
0.000722264
-0.000286493
-0.000533082
-0.000112302
0.000669254
-3.43168e-05
6.25028e-05
4.19405e-05
-2.16497e-05
2.52728e-06
1.94642e-05
4.20853e-05
6.02723e-05
9.86884e-06
4.91883e-05
5.99179e-05
8.37477e-05
1.77602e-05
-5.28286e-07
2.14612e-05
-1.57359e-06
0.00603466
-0.0072663
0.00652308
-0.0077977
0.00924675
-0.0109153
0.000168384
-0.0103253
0.00867586
0.000117876
1.0922e-05
9.81355e-05
0.000115024
0.000141027
0.000135939
2.93712e-05
-2.13565e-06
2.68573e-05
2.66014e-05
4.12897e-05
3.18692e-05
4.74142e-05
0.000113771
0.000371833
0.000244936
0.00126625
0.000131052
5.97179e-05
2.61122e-05
6.23726e-06
-9.98212e-06
-3.93098e-06
-4.50987e-06
8.29068e-06
4.73968e-06
3.61676e-06
1.49823e-05
1.73241e-05
1.37931e-05
-4.2558e-06
-1.23844e-05
-2.43433e-06
-4.26928e-06
-5.42321e-06
3.67472e-06
7.21758e-06
1.23706e-05
1.96789e-05
2.5432e-05
3.85475e-05
3.13192e-05
3.7685e-05
7.20156e-05
6.1429e-05
4.17836e-05
0.000103334
0.000253768
8.94943e-05
0.000100088
0.00352646
-0.00063038
0.000376694
8.04207e-05
0.000283076
0.0075454
-0.000307237
-0.00109754
0.00599596
0.00202325
-0.0261385
-0.0094853
-0.0170075
0.0165698
-0.011724
-0.0125776
0.0149478
-0.0181606
-0.000986358
-0.00135897
-0.0168872
0.0150706
-0.00015137
-0.000762428
-4.39275e-05
0.000291588
0.000399018
0.00635237
0.00217634
-0.011624
-0.0106266
0.0181877
0.00166978
-0.00429769
-0.0013112
0.00718774
0.000191906
-0.00834984
-0.00542793
0.00546095
-1.87745e-05
-0.00869168
-0.00597331
0.00478564
-4.79789e-05
0.0076141
0.00738067
0.0004306
0.0101451
-0.0099096
7.40192e-05
-0.00805486
-5.83543e-05
-0.000149783
-2.27379e-05
6.63439e-06
1.68695e-05
1.48253e-05
1.05503e-05
6.82419e-06
3.58793e-06
-3.39551e-06
-1.19458e-05
0.000163428
-0.00318618
0.00374042
0.000244908
-0.00462498
0.00551046
0.00837706
-0.00972667
0.0118564
-0.0137288
-0.000157793
-0.00921621
0.000151641
0.00795823
-0.000139931
-0.00642803
6.63199e-05
0.00555046
-0.000419916
-0.000289798
-0.00494388
-0.000173899
0.00566868
-0.00629493
3.93395e-05
-0.0121798
-1.8675e-05
0.014277
-0.0124695
2.40812e-05
-0.0146204
2.98722e-05
-0.0166668
-2.86864e-05
-0.0188261
-5.87804e-05
0.0210763
-0.0218862
-1.16191e-05
0.0235753
-5.74034e-05
-0.0231937
0.023116
-7.10412e-05
-0.0213233
0.0215578
-0.0234141
-1.35197e-05
2.2836e-05
0.000119698
8.86645e-05
4.11815e-05
1.53236e-05
2.97532e-06
-5.06173e-06
-7.35598e-05
-9.06221e-05
-0.000183659
-0.000229178
-0.000205689
-0.000241165
-0.00667779
0.00779637
0.00047243
-0.00945677
0.0105652
0.016238
-0.0189458
0.0214066
-0.0251349
0.000447267
-0.019224
0.00184795
0.0149738
-9.52899e-05
-0.0131734
0.000484182
0.0111425
-0.000732596
-0.000322839
-0.00945314
-5.9538e-05
0.0111506
-0.0120633
0.000125329
-0.021817
9.50943e-05
0.0248624
-0.0212806
-6.75128e-05
0.0233909
0.000170218
-0.026607
0.0155912
-1.74763e-05
-0.0160611
0.0140238
-0.0174409
0.000573458
-0.00294618
-0.00146923
-0.00246971
-0.0041536
0.0184019
-0.0286624
0.00612298
-0.00632448
-0.00300797
-0.00172859
-0.00115212
-0.000825217
-0.000591662
-0.000347032
0.000228258
0.00355983
0.00170359
-0.000882488
0.000597902
0.000272737
0.00206744
-0.00181157
0.00184191
-0.000111412
-0.00121274
5.36219e-05
0.00231773
-0.00221092
-8.87562e-06
-0.00245953
1.64437e-06
-0.0028733
-8.7149e-07
-0.00349176
1.9235e-05
0.0042203
-0.00431686
-6.54789e-06
-0.0050332
8.44491e-05
0.00607709
2.476e-05
1.17689e-05
0.00530475
1.92994e-05
0.00361887
-3.56317e-06
-1.01007e-05
-2.81642e-05
-9.9509e-05
1.12837e-05
0.00121196
8.01998e-05
8.53833e-05
0.000424972
0.000748509
-0.00125428
-6.38321e-05
-0.00207004
1.44038e-05
-0.00409056
-3.15938e-05
0.00484606
-0.00426882
3.34052e-06
-0.00524682
6.07667e-06
-0.00622697
2.93684e-06
-0.00746252
1.5572e-05
0.0088983
-0.00913085
-1.75759e-05
0.0108403
-5.43609e-06
5.69226e-06
0.00768688
-2.17757e-07
2.18962e-05
8.87835e-06
-8.78298e-06
0.00353477
-2.88723e-05
0.00243157
0.000149558
-2.51758e-05
0.00203892
4.95205e-06
0.00010336
-0.000173485
0.00253144
-0.000105499
-0.000177849
-0.00340806
-0.000144224
-0.00437561
1.83702e-05
-0.00862848
-3.0429e-05
0.0102191
-0.00897405
2.01019e-05
-0.0107319
1.85975e-05
-0.0124401
-4.67385e-06
-0.0143796
-1.42282e-05
0.016532
-0.0170696
-5.04592e-05
0.019265
-3.82087e-05
-6.20115e-06
1.28869e-05
1.833e-05
3.32887e-05
2.81377e-05
2.47405e-05
2.07401e-05
1.54177e-05
1.58678e-05
1.88245e-05
1.20494e-05
0.000133424
0.000209446
0.000291048
1.05465e-05
3.62344e-05
2.64924e-05
2.19535e-05
1.6906e-05
-1.93087e-06
1.09711e-05
-0.000145247
-0.00273711
4.76865e-05
-0.00267836
0.0035553
0.000121192
-0.00407252
-0.00416965
0.00362221
0.00338757
0.000117683
-0.00388861
-0.00444652
0.00384067
-0.00289795
4.3089e-05
-0.00258976
0.00244489
0.00257153
0.00253511
0.00247565
4.876e-05
-0.00284898
-0.00264815
-0.000145229
0.00344674
0.000123359
-0.00436629
-0.00398497
-0.000224502
0.00495481
0.000245384
-0.00645828
-0.00586301
-0.006018
-0.00616465
0.000248129
0.005121
0.00522655
-0.000223226
0.00486134
0.000241369
-0.00571801
-0.00657969
0.00555703
-0.000230679
-0.00366374
-0.00548645
7.67761e-05
0.00311284
-0.000153215
-0.00247171
-0.00363543
2.83996e-05
0.00230408
0.00272798
-0.001723
0.00015264
-0.00167252
-0.0001769
-0.00169865
0.000151542
-0.00166937
-0.000176661
-0.0017021
0.000157229
-0.00169889
0.00269399
0.00232861
-0.000185635
-4.69813e-05
0.000181881
-0.00110656
-0.00122809
-0.00118229
-0.00131413
-0.00125058
-0.00126091
-0.00127284
-0.00112825
-0.00172765
-0.00130221
-0.00118784
-0.00122539
-0.00082535
-0.00034174
-0.000429158
0.000769026
-0.000864022
0.00212621
0.00215041
0.00213464
0.00214005
0.00221916
0.00206506
-0.000833045
0.000670509
-0.000339698
-0.000825535
-0.000431401
0.000808758
-3.0123e-05
6.15674e-05
6.25355e-05
0.000136257
0.000213133
-1.05278e-05
-0.000314508
0.00743011
0.000383804
-0.00858262
-0.00879647
-0.00813419
-0.00939214
0.000368807
0.00690969
0.00792043
-0.000321548
-0.00534632
-0.00804943
0.000171691
0.00447148
0.00669833
-4.88728e-05
0.000654819
-0.000965539
9.84694e-05
0.000952779
-0.00138042
0.000140818
0.00137607
-0.00188641
0.000251237
0.00212691
-0.0022971
0.000777547
0.00409525
0.000827921
0.00196663
-0.00047633
0.0010566
-0.000564895
0.000762103
-0.000458838
0.000577441
-0.000346135
0.000400479
4.889e-05
-0.000680703
0.00461923
-1.83423e-05
0.000424822
-0.000587062
-3.58205e-05
9.17697e-05
-0.000296406
-0.000461343
0.00018077
4.56829e-05
-0.00230564
0.000153741
-0.00160172
-0.000186617
-4.37656e-05
0.000202421
-0.000884261
-0.00140372
-0.00138908
-0.00115972
-0.000377499
-0.000838486
-0.000323251
-0.000611939
-0.00190773
0.00030713
0.0026879
0.00205488
0.00223349
-0.000831536
-0.00180452
-0.00110223
0.000187451
0.000651084
0.000611339
0.000850256
0.00108935
0.00137543
0.000268627
-0.00757599
-0.0114827
0.00958568
0.00638387
-0.000490924
-0.000337848
-0.000190436
-0.000163118
0.000831632
0.00100105
0.00120471
-0.000648623
-0.000422423
0.0109372
0.000508059
-0.0111581
-0.0129556
-0.0103308
-0.015954
0.000365787
0.00890455
0.0133437
-5.39404e-05
0.000131285
6.74172e-05
4.38686e-05
7.9715e-05
0.000141105
-0.0142533
0.0127576
-0.0147623
-1.21086e-06
0.00028372
0.000194568
0.000118876
3.81972e-05
-3.34798e-06
0.012103
4.16804e-05
6.00496e-06
0.0162731
0.000240935
-1.59192e-06
0.000373715
0.000447862
-7.48465e-05
1.17122e-05
3.86301e-05
1.68277e-05
2.64941e-05
-2.29328e-05
2.80239e-05
2.64938e-05
4.92397e-05
1.07157e-05
3.97464e-05
3.52034e-05
1.52993e-05
1.85058e-06
3.01087e-06
2.05439e-06
1.57248e-05
0.000347229
0.000582812
0.000414032
0.00033274
0.000336442
0.00037347
0.000190204
0.000189285
3.11564e-05
0.000124686
0.0019548
0.000258646
0.000479178
0.000473139
0.000578868
0.000584123
0.000673589
0.000557673
0.000566928
0.000795448
0.000736628
-0.0129914
0.0136563
0.000924212
-0.016753
0.000552019
0.000352932
-0.00286047
-0.00383658
-0.0220889
-0.0232307
-0.0384918
0.00972224
0.00328294
0.0183684
-0.0066342
0.0104554
-0.00116063
-0.0118045
0.0106892
-0.000249403
0.00750293
-0.000266259
0.0100532
-0.0110567
-0.000904506
-0.000281078
-0.000340901
0.00014026
-0.00120122
0.00785777
-0.000349791
0.000419956
0.000254442
0.000134357
0.000146561
7.51252e-05
6.74337e-05
-0.000124192
-0.000134519
-1.69967e-05
0.000161729
0.000886193
0.00013796
-3.89891e-05
-9.09431e-05
0.00743308
-0.00881854
7.87371e-05
-0.0166369
2.02913e-05
0.019296
-0.0166819
9.6749e-06
-0.0190985
3.01458e-05
0.0188918
-6.12229e-06
8.93794e-06
1.96311e-05
3.98298e-05
8.97303e-05
0.000650689
0.000134498
4.82401e-05
2.35768e-05
9.99322e-06
9.62102e-06
8.63562e-06
6.20898e-06
3.84579e-06
0.00353066
6.49418e-06
0.00428544
3.23434e-06
0.00289164
0.00240283
8.33496e-06
0.00212863
0.00120759
3.17515e-05
5.53877e-06
-1.63345e-06
1.03617e-05
5.00689e-06
0.00519046
0.000102826
-0.000256731
0.0039327
-0.0001615
0.000131463
-0.000335583
0.00526225
-0.000190956
-0.000350594
-0.00695491
-0.000161447
0.00805001
-0.000420131
-0.000208052
0.000244084
0.000179267
1.94892e-05
0.00753795
1.56125e-05
0.0075332
3.29593e-05
4.86983e-05
0.0106602
2.4934e-05
0.0126149
3.91665e-05
0.000116776
0.0145726
-0.000591194
0.0101594
-0.00037817
-0.000413931
-0.0127363
0.00019096
0.0132511
-0.00113671
0.000249563
-0.000317774
-0.00224983
-0.00579098
-5.97768e-06
-0.00089503
-0.000381909
0.00024202
0.000239763
0.019115
2.53615e-05
-3.0884e-05
-7.05076e-05
-6.77856e-05
-0.00034446
-1.58015e-05
4.78151e-05
3.94816e-05
0.0169017
0.0144802
-1.21506e-05
-1.49086e-06
-4.28374e-05
-0.000103659
-0.000134767
-0.000589115
-0.00020188
-0.00019035
-9.07335e-05
-3.16739e-05
0.0147568
-3.82741e-05
2.98773e-06
1.51192e-05
0.000283058
0.000190906
9.45883e-05
-9.67693e-05
-2.52286e-05
0.000377554
0.000480117
0.000642624
-8.09282e-05
0.000274797
0.000265016
-0.000494797
0.00236658
0.00528906
-0.00363661
0.0242054
0.00170754
0.00079528
-4.67429e-05
0.000859124
0.00123282
0.001169
0.000988502
0.000821997
0.000642243
0.000659024
0.000194299
-2.23782e-05
-2.35139e-05
-0.00172751
-0.000864554
-0.00180519
-0.000889379
0.000195069
0.000599555
-0.000193975
-0.000153122
0.003162
0.00378102
0.000134066
1.05602e-05
1.48389e-05
1.92446e-05
1.5787e-05
1.94585e-05
1.12071e-05
-8.164e-05
0.000777924
0.00211025
0.000124485
6.09701e-05
8.74208e-06
-3.04583e-06
1.51893e-05
1.55567e-05
1.66126e-05
1.8048e-05
-1.34078e-05
0.000208289
0.000287197
0.000296387
0.000381197
-6.14895e-05
-0.000544362
-0.0121309
0.000546707
-0.0118065
0.013097
0.000802069
-0.0156665
-0.0162015
0.013463
0.0126047
0.000700892
-0.01476
-0.0173138
0.0144246
-0.000552935
0.0120466
0.0178946
4.62561e-05
7.16133e-05
-0.000835121
0.00170724
0.00205405
0.00236144
0.0054657
0.00665557
0.0133047
0.0312114
0.00358996
0.0163102
0.0241773
-0.00195454
-0.00112968
0.00120793
0.00135856
-0.000761952
-0.000587804
0.00954033
0.0102306
0.00999937
0.00970111
0.000539188
-0.0126672
-0.0115248
-0.000554535
0.012815
0.000805726
-0.0168144
-0.0154438
-0.000741403
0.0159859
0.0170427
0.0151423
-0.000715762
-0.000156037
-0.000214427
-2.11388e-05
2.27594e-05
0.000100915
2.34616e-05
2.28568e-05
-3.46854e-05
-1.38443e-05
-0.00021858
0.00219039
-0.000246474
-0.000150697
-0.000343037
-0.00029956
-0.00018648
-0.000317053
-0.000143494
0.00591292
-0.00017387
0.000110852
2.5368e-05
8.16517e-06
0.000260432
0.000226628
-0.00259488
0.013297
-0.00673206
-0.0240758
-0.0284962
0.0024031
-0.0134966
0.00570683
0.00184141
-0.00836258
-0.00925143
-0.000932335
-0.00137705
0.00900611
0.0083345
-0.00083292
-0.00817845
-0.000171187
0.00811938
-2.73682e-05
8.71973e-05
-2.63133e-06
8.25917e-05
0.000280257
0.000291775
0.000187132
4.68532e-05
3.51492e-05
-6.27501e-05
-5.6997e-05
2.34945e-06
-7.49208e-05
-2.97657e-05
-1.21182e-05
0.000369102
0.00045587
0.000458147
-0.000194494
0.000546411
0.000537332
-0.000386001
0.0219503
-0.00129466
0.00134035
-0.0243592
0.000515428
0.000299797
0.00296928
0.000356498
0.000622233
0.00197313
-0.000156102
-3.04201e-05
-0.000148884
0.000571339
0.00523849
-0.000347538
-0.000227298
-0.000135579
0.000108817
-0.0143058
0.0164247
-0.00059646
1.57808e-05
-0.00075405
-0.00173871
-0.00194405
-0.000360662
-0.000176905
0.00631875
-0.00019591
-0.000211185
-0.000400921
-7.58282e-05
-0.000246734
0.0056126
-0.000373753
-0.000173662
0.000580253
0.000466716
-7.3482e-06
-6.87054e-05
-4.62772e-05
-0.000135846
0.000110836
0.000476694
0.000616738