/*--------------------------------*- C++ -*----------------------------------*\
| =========                 |                                                 |
| \\      /  F ield         | OpenFOAM: The Open Source CFD Toolbox           |
|  \\    /   O peration     | Version:  2306                                  |
|   \\  /    A nd           | Website:  www.openfoam.com                      |
|    \\/     M anipulation  |                                                 |
\*---------------------------------------------------------------------------*/
FoamFile
{
    version     2.0;
    format      ascii;
    arch        "LSB;label=32;scalar=64";
    class       volScalarField;
    location    "2.3";
    object      gradTy;
}
// * * * * * * * * * * * * * * * * * * * * * * * * * * * * * * * * * * * * * //

dimensions      [0 -1 0 1 0 0 0];

internalField   nonuniform List<scalar> 
5322
(
0.650112
0.0610553
-0.00446211
-0.0273342
-0.0151605
-0.00539036
-0.000199016
0.00481487
0.0141585
0.0258595
0.000230762
-0.192712
-0.21419
-0.19226
-0.166898
0.361197
0.483134
-0.000743575
0.333613
-0.395499
0.376138
-0.382096
0.374804
-0.383569
0.382216
-0.374926
0.374538
-0.382324
0.38123
-0.376533
0.378849
-0.37882
0.391141
-0.335991
0.322295
-0.161103
0.316461
0.397272
0.198429
0.214827
0.2932
0.24488
0.253462
0.273678
0.260923
0.258331
0.265083
0.283196
0.262372
0.250573
0.314343
0.15222
0.170386
-0.561673
-0.0306566
-0.325007
0.17082
-0.426233
-0.0242692
-0.370445
0.173451
-0.419165
-0.0216682
-0.367694
0.174148
-0.433764
-0.027906
-0.3556
0.175765
-0.47718
0.0168026
0.419362
0.233589
0.326328
0.243761
0.308728
0.257616
0.307367
0.260982
0.361055
0.0328903
0.12138
0.183463
0.305412
-0.0260096
-0.127634
0.0362969
0.0713874
0.13219
0.0151515
0.0345958
0.00639213
0.00100919
0.00118746
0.444529
-0.237315
0.00714828
0.239262
0.00649309
-0.0062398
0.032625
0.00639039
0.253331
-0.433399
0.387832
0.00522109
-0.00741308
-0.00138235
-0.000227488
0.000416051
0.000473365
0.000581129
0.00132521
0.00265863
-0.00451008
0.00118246
0.137376
-0.0565066
-0.0194133
-0.106027
0.130406
-0.0725806
-0.141431
-0.193462
-0.218615
-0.00880716
0.160239
-0.120916
0.0113306
0.132059
-0.131535
0.00554069
0.137281
-0.140762
-0.00444714
0.128208
-0.153797
-0.0122465
-0.0354951
0.235457
0.195068
-0.127844
0.0847615
0.0658892
-0.134764
0.0145214
-0.132044
0.103575
0.106443
-0.117369
-0.00177484
-0.109524
0.109927
0.118655
-0.106596
-0.00035825
-0.101888
0.129346
-0.00843748
-0.00638075
0.406465
-0.318561
0.352245
-0.37404
0.0126448
-0.241389
-0.00516741
-0.00220777
-0.0451771
0.116623
-0.233342
0.232161
-0.389713
0.000888949
0.39805
-0.393234
0.409408
-0.41839
0.00174032
0.412183
-0.422277
0.437984
-0.436632
0.00162503
0.426938
-0.429842
0.443699
-0.441842
0.00099544
0.431551
-0.432617
0.445668
-0.443753
0.00083702
0.433556
-0.434931
0.447932
-0.444492
0.00108756
0.434376
-0.4376
0.450883
-0.443391
0.00143305
0.43268
-0.438823
0.452034
-0.434226
0.00184317
0.421785
-0.434217
0.43784
-0.237282
-0.00106448
-0.0174802
0.00727176
-0.00705231
-0.000434264
0.00278134
0.00368572
1.39518e-05
0.445494
-0.236196
0.00199923
0.281571
-0.0382444
-0.0112365
0.00927998
-0.0138576
0.238559
-0.438699
0.00254581
0.00195393
0.00548989
0.00355257
0.00189691
0.000852715
5.74973e-05
-0.00117426
-0.00295831
0.00439745
-0.00158243
-0.110588
-0.117789
-0.117842
-0.110844
0.0226413
0.039026
0.0246042
-0.148919
0.078113
-0.157923
0.0391172
0.0226862
0.0246512
-0.156072
0.0543496
0.149329
0.096403
-0.14886
0.0782736
0.162106
0.226345
0.23907
-0.391584
-0.390696
-0.420485
0.30504
-0.378425
0.347277
-0.371828
0.359631
-0.370363
0.364031
-0.372058
0.364903
-0.3774
0.36327
-0.386276
0.359443
-0.394766
0.351805
-0.0774745
0.166899
-0.0531137
-0.00921013
0.304577
-0.363538
0.00351623
0.325936
-0.364836
0.00159751
0.336914
-0.358475
0.000727971
0.341974
-0.35282
0.000159318
0.342117
-0.350405
-0.000821776
0.336305
-0.351244
-0.00261177
0.3191
-0.35729
0.00835432
0.267286
-0.024684
0.267052
-0.357869
0.00837008
0.306635
-0.418064
0.167789
0.277441
0.207363
0.194092
-0.368821
0.241945
-0.344248
0.304436
-0.337297
0.323211
-0.336299
0.329221
-0.338934
0.32975
-0.34598
0.327234
-0.354435
0.321616
-0.351013
0.306561
-0.0505914
0.120768
-0.138333
-0.00260988
0.420229
-0.51429
0.00885877
0.461813
-0.502672
0.0044516
0.470487
-0.484923
0.00171835
0.470805
-0.475907
0.000408785
0.470799
-0.473266
-0.000930251
0.470074
-0.473245
-0.001959
0.462285
-0.477411
0.0106413
0.4111
-0.475351
0.166794
0.387524
0.344369
-0.172907
0.328322
-0.0779379
0.061868
0.393396
-0.340479
0.317651
-0.299064
0.479015
-0.421751
-0.00334087
-0.472019
0.402605
-0.411882
0.0121011
0.43364
0.019358
0.00839968
-0.122722
0.0120333
-0.00985433
0.00643858
-0.00235289
-0.000842582
0.396458
-0.397235
0.397513
-0.413235
6.69533e-05
0.426314
-0.429041
0.433938
-0.433809
0.0003007
0.437107
-0.435464
0.440164
-0.435585
0.000354231
0.443642
-0.433012
0.444772
-0.42201
-0.000684148
0.00057525
0.00095167
0.00317631
0.00178329
0.00115197
0.44763
-0.432379
0.00228312
0.511316
-0.505065
0.452431
-0.417745
0.00438514
0.507407
-0.482209
0.307314
-0.213805
-0.34147
-0.0231956
-0.00526508
-0.123432
-0.0317114
0.00956966
0.227218
0.296595
0.0236597
-0.483301
0.367231
0.00365414
-0.409987
0.374762
-0.000813232
-0.385847
0.379684
0.000171714
-0.372763
0.378426
-0.00266688
-0.372525
0.393215
-0.00673111
-0.355297
0.401553
-0.0252497
-0.316997
0.102894
0.154702
-0.190782
0.00160751
0.31164
-0.265238
0.311292
-0.304336
0.309006
-0.305746
0.497465
-0.436053
-0.0010295
-0.498703
0.434579
-0.433329
-0.00260406
0.493061
-2.54279e-05
-0.00110835
-0.000725301
-0.0285958
0.00648139
0.0399091
0.0433494
0.0176526
0.00755322
0.0249626
0.01768
-0.0227663
0.368585
0.118162
0.0256919
0.0882057
0.0188316
0.00566211
0.00394778
0.0013129
0.000733969
0.00103813
0.00101379
-0.279803
0.000304214
0.285559
-0.282261
0.308185
-0.306537
0.311174
-0.307067
0.504859
-0.436389
0.000814358
-0.501067
0.442026
-0.436888
-5.5987e-05
0.500354
0.000973125
0.00100588
-0.000116755
-0.00289799
-0.0013699
0.00435252
0.00315215
0.000583794
0.0134986
0.00967859
0.291797
0.00142136
-0.0134359
-0.00116586
-0.0195221
0.00252398
0.193924
0.370304
0.680677
0.0713446
-0.0103545
-0.00481522
-0.01847
-0.376029
0.00164505
0.349889
0.318447
-0.351425
-0.00259072
-0.370459
0.00274517
0.361878
0.335751
-0.35023
-0.000783735
-0.370345
0.00238083
0.365052
0.3421
-0.352504
0.000221829
-0.373485
0.00633103
0.363997
0.343042
-0.358392
0.000854079
-0.380798
0.0177819
0.358109
0.340497
-0.36626
0.00181072
-0.391055
0.0432631
0.344566
0.334991
-0.370087
0.00384587
-0.394718
0.0964574
0.322353
0.322331
-0.062071
-0.00895164
-0.0718732
0.848359
-0.378935
-0.386911
0.626762
0.162946
0.0676793
-0.585183
-0.120609
-0.0705858
0.300722
-0.313937
-0.00547934
0.0065461
-0.0393063
-0.0472812
-0.00485598
0.0125399
0.0072625
0.00295591
-0.00385222
0.00173775
0.0027749
0.00081833
9.02124e-05
-0.000751129
-0.00257977
-0.00495532
-0.0171814
-0.00920485
0.239696
-0.2398
0.00288181
0.00154613
-0.243568
0.239987
-0.000568197
0.000997365
-0.00108534
-0.0181793
-0.0115205
0.0435176
0.00471688
0.0500791
-0.0177632
-0.0217806
2.41127e-05
0.0802176
-0.0932459
0.0936203
-0.0799184
-0.0809032
-0.0691614
0.00258033
0.0928384
0.0835478
-0.0833972
-0.0024858
-0.0935411
-3.90999e-06
1.46693e-05
0.00594246
0.0168569
0.0150882
-0.0334446
0.000654182
0.000172328
0.000987641
0.00282672
0.00685811
0.00295084
0.0240151
-0.0188589
-0.00208927
0.0136581
0.300265
-0.273948
0.316273
-0.311603
0.319536
-0.00767024
-0.283288
0.00825285
0.317517
-0.0011622
-0.0138771
0.00285365
0.00196829
0.00392463
0.00464928
-0.00334399
-0.047013
0.161127
-0.0718707
-0.309136
-0.039169
-0.0372081
-0.608907
-0.167846
0.0214056
-0.245607
0.181598
0.00834674
0.01029
0.219825
0.184403
0.0258503
-0.0206182
0.244527
0.219754
0.02787
-0.0248482
0.221883
0.250615
0.0259777
-0.0572812
0.184045
0.255924
-0.0886634
0.133407
-0.116304
0.124315
-0.49087
-0.266613
0.0482187
-0.121149
0.264027
-0.0159166
-0.432817
0.228326
-0.00455805
-0.271152
-0.268043
-0.389707
0.164055
-0.214338
-0.137235
0.238486
-0.494858
-0.0554845
0.348123
-0.428654
-0.0109637
0.373106
-0.39267
0.000877875
0.376187
-0.378624
0.00196115
0.374585
-0.374924
0.00214291
0.37442
-0.374096
0.00578174
0.376457
-0.371757
0.0230465
0.388365
-0.333127
0.0937358
0.323129
-0.180439
0.342843
0.387225
-0.480181
0.409757
-0.481914
0.0110721
0.241163
-0.368997
0.166609
0.193157
0.209113
0.277417
0.238593
0.167667
0.323033
0.192375
-0.00159155
-0.0280006
-0.0156721
-0.00981427
-0.00590443
-0.0115328
-0.00607358
0.00174667
0.0061995
0.286791
-0.277909
9.21646e-06
0.000488701
0.000114875
2.11105e-05
-0.499302
0.43807
0.000196084
0.439193
-0.441426
0.000460936
0.441935
-0.44341
0.00110878
0.443578
-0.445599
0.00197753
0.442914
-0.445384
0.0025189
0.43169
0.00276992
0.00533297
0.000830804
3.96022e-06
-0.00125912
-6.06997e-05
0.000375465
0.000411805
0.000361757
0.000236457
0.0001817
0.000233043
0.00227357
0.00645157
-0.233479
0.0034768
0.0115612
-0.000603431
0.000415909
0.000627332
0.00040486
-3.44607e-05
-0.000779554
-0.00195395
-0.00285448
0.0104315
-0.00295731
-0.0078269
-0.0102338
0.204361
-0.218103
0.276538
0.000400133
-0.0372177
0.031095
0.102642
0.000583596
-0.0912092
0.0858577
0.0880327
0.000329233
-0.0975715
0.0915941
0.0786106
2.14445e-05
-0.122552
0.116576
0.10895
-0.0020705
0.135719
-0.142908
0.139349
-0.150118
-0.0138596
-0.0829489
0.120529
-0.00990531
-0.114601
-0.00243185
-0.000762334
0.411485
-0.00143117
-0.413898
0.239279
-0.00832336
-0.247449
0.247902
-0.00538558
-0.259828
0.416899
-0.00392106
-0.416707
0.409182
-0.407254
0.404953
-0.414745
0.00094169
-0.412993
0.407491
-0.00083287
-0.247587
-0.00905714
0.249764
-0.212432
0.00195768
0.373764
0.133348
0.393772
0.143946
-0.203554
0.311137
0.0286457
-0.272507
0.294455
0.00589451
-0.285143
0.288326
0.0013267
-0.284948
0.287719
0.000189354
-0.287777
0.285559
-0.00138107
-0.2878
0.286034
-0.00690701
-0.294408
0.271883
-0.0311807
-0.311829
0.203824
-0.148336
-0.39558
-0.11979
-0.370437
0.242122
0.0226732
0.0121075
0.154732
0.0362037
-0.238245
-0.196322
-0.0545923
-0.151873
-0.0984694
-0.0769175
-0.168216
-0.0840484
-0.0893038
-0.167091
-0.24468
-0.253541
-0.167454
0.41606
0.0229442
-0.24482
-0.00857949
0.335647
0.39491
-0.0044566
-0.291196
0.00193957
0.325455
0.482843
0.00460351
-0.475524
0.000332485
0.48025
0.00114224
-0.477424
0.00129051
0.478655
0.000650565
-0.478782
-0.0010143
0.477154
0.000533315
-0.480314
-0.000180385
0.475013
-0.000980952
-0.483072
-0.00417907
0.466905
-0.00685656
-0.487964
-0.0171317
0.00211879
-0.299969
0.487311
0.00306618
0.313168
-4.71721e-05
-0.304848
0.498558
-0.000152148
0.308994
2.55374e-05
-0.307286
0.501624
-0.000118898
0.308399
-0.000291892
-0.307145
0.502755
0.000110105
0.307365
0.000434496
-0.308352
0.503406
0.000340191
0.307779
9.80505e-05
-0.308879
0.503659
0.000559964
0.305562
0.000513282
-0.312407
0.500736
-0.00136196
0.302438
8.52096e-05
-0.319309
0.477741
-0.018862
0.342806
-0.0613092
0.0787854
-0.389157
-0.343181
0.179057
-0.327219
-0.0960046
-0.0663337
-0.684225
-0.372454
-0.32683
-0.23223
-0.167901
0.372809
0.431223
0.0313036
-0.231945
-0.0109595
0.488012
0.0145008
-0.466828
0.0055122
0.00355366
0.00745765
0.018849
-0.321669
-0.0155412
0.156729
-0.0230615
-0.0222058
-0.0422393
0.14984
-0.0495439
0.0204105
0.017934
0.000470765
0.00135069
0.00123287
0.000720266
0.000614273
0.000186412
-0.00243557
-0.00177357
0.427222
-0.495258
0.00188215
-0.00257807
-0.00482174
-0.000358536
-0.407403
-0.000420316
0.415176
-0.433771
-0.000433347
0.43328
-0.439458
-2.95905e-05
-0.000135132
-0.00107261
-0.000520614
-4.96025e-05
0.000744145
0.000669868
0.000594124
0.000384219
0.000251243
0.00015434
0.00120722
0.00188621
0.000746986
0.411994
-0.414803
0.376981
-0.379199
0.380281
-0.379609
0.00211906
-0.198644
6.1961e-05
0.187363
0.00675943
-0.209665
-0.000744801
0.159304
-0.0162694
-0.0131254
0.0596514
0.00274398
-0.0643749
0.474923
-0.00646129
-0.298193
0.00116379
0.305333
0.397537
-0.00285663
-0.313726
0.000426941
0.317966
0.384608
4.64789e-05
-0.317576
-9.47169e-06
0.315025
0.385329
0.00249199
-0.32085
-0.000596264
0.308699
-0.323978
-0.00109973
0.290699
-0.331245
0.0131077
-0.00941206
-0.00240935
-0.000917498
-2.92405e-05
0.000259646
0.000538144
0.00144526
0.00301947
-0.00447951
0.00136815
0.110738
0.116642
0.118041
-0.0351275
0.159607
-0.016738
-0.0173806
0.163943
-0.031017
0.149483
-0.0482416
0.00589197
-0.0133003
0.0128183
-0.0032039
0.00289897
-0.00235014
-0.392133
0.0103227
0.0115822
0.00246889
0.00014087
-4.30762e-05
-0.083256
0.0825753
0.00259966
-0.0702317
0.107708
-0.0219374
0.00926021
-0.00376773
-0.00427201
-0.0209211
0.155342
-0.386232
0.0233307
-0.259366
-0.0106159
0.328499
0.403336
-0.00949111
-0.296606
0.00263265
0.388379
-0.00712507
-0.307241
0.00122792
0.321514
0.389199
-0.00176829
-0.315668
0.000461983
0.318945
-0.318686
-0.000117959
0.315663
0.00059372
0.000212131
-0.000126039
-0.000387764
-0.00129186
0.00947179
-0.00624694
-0.000282176
0.00255325
3.71688e-05
-0.00237981
-0.0111875
-0.0094306
-0.00257242
-0.00255816
0.00237109
0.00667214
0.00128132
0.00588941
0.0016241
0.00381366
-0.00844951
-0.0119447
-0.0255968
-0.0283663
-0.0607672
-0.0510067
-0.0308244
-0.118263
-0.367992
0.0318398
-0.568568
-0.417771
-0.299511
-0.19908
-0.179696
0.0711834
-0.161517
-0.0158342
0.0378581
0.00145947
-0.00624723
0.193791
-0.229063
0.28172
0.00267288
-0.0329996
0.0524033
0.119683
0.00507328
-0.0814309
0.111884
0.112146
0.00552812
-0.0873312
0.115689
0.104937
0.00418579
-0.116775
0.130643
-0.00623111
0.00371071
0.0187373
0.0802133
-0.344251
-0.499424
0.00543608
0.467472
0.0133837
0.00990161
0.302235
0.00181527
-0.495921
0.50188
-0.000758068
-0.474218
0.278712
-0.320014
0.285181
-0.0313091
-0.297828
0.0161706
-0.331433
0.462016
-0.404723
0.4209
-0.00143384
-0.421919
0.00077495
0.418172
-0.00125174
-0.419844
0.000245898
0.421727
-0.00122499
-0.423491
0.41156
-0.473786
0.0272384
-0.32816
0.44909
0.02086
0.0108
-0.123514
0.134033
-0.138306
2.45679e-05
-0.115579
0.106165
0.00754504
-0.131994
0.0939382
-0.107217
0.00481691
0.191969
-0.115852
0.0710925
0.0177273
-0.136526
0.107363
-0.00212702
-0.00233311
-7.16578e-05
0.00453485
0.00282282
0.00146203
0.000647206
-2.60678e-07
-0.00113986
-0.00288567
0.00443105
-0.00137453
0.0694324
0.079889
0.000147292
-0.0189294
-0.0117022
0.150518
0.0545402
-0.127748
0.0656917
0.0848793
-0.133724
0.00436317
-0.154836
-0.0120276
-0.0361029
-0.125063
0.196074
0.238478
0.0124513
0.0437518
-0.0106343
0.00597749
0.1046
-0.112406
-0.00136104
-0.117912
0.117579
0.112402
-0.104555
-0.000719217
-0.142657
-6.9558e-05
0.14261
3.17781e-05
7.20576e-05
-0.00259581
0.00851445
0.00375671
0.0637467
0.680053
0.369928
0.19033
-0.0015259
-0.0249615
-0.0139731
-0.00766277
-0.0103628
-0.0223649
-0.0470728
-0.0514833
-0.104777
-0.116077
-0.246911
-0.416963
-0.371197
-0.374434
0.159083
-0.250014
-0.0969097
-0.10507
-0.323983
-0.426538
-0.378658
-0.378225
-0.383471
-0.377051
-0.427471
0.161327
-0.0459428
-0.134251
0.511824
-0.160497
-0.306519
-0.299312
-0.0782656
-0.0971182
-0.226581
-0.23813
-0.0627683
-0.0966341
-0.0236704
-0.00776756
-0.00139194
2.13511e-06
0.000220385
-0.000782329
-0.0044748
-0.00524265
-0.0193764
-0.00815996
-0.00296238
-0.00566701
-0.00351886
-0.00483382
-0.0118386
-0.0303899
-0.0127849
-0.0124381
-0.0144307
-0.00688523
-0.00194105
-0.000170521
-0.000359348
-0.00126034
-0.00126859
-0.00369426
0.303606
0.458637
-0.475224
0.466811
-0.473228
-0.000660713
0.322166
-0.337802
-0.0015836
-0.00288934
0.00151794
0.00527949
-0.344789
0.0158629
-0.157138
0.0969558
-0.0301883
-0.00938938
-0.0111485
0.0143443
-0.134983
0.106033
-0.000795556
-0.000382191
-0.000390958
8.78736e-05
0.0691578
-0.0023775
0.000297767
0.000293652
-0.00020051
-0.0437219
0.000223852
0.0181217
0.0112414
0.0148422
-0.0123356
0.0103669
-0.000167416
0.00107551
-0.0436016
0.134706
0.133736
-0.084573
-0.0142479
-0.0669765
0.128515
0.0112874
0.00249045
5.4765e-05
6.60081e-06
-0.00255551
-0.00233004
-0.00240013
-0.000482202
-0.0104488
-0.000877233
-0.00239637
0.000805094
0.00537453
0.00122989
0.00349386
-0.336354
0.328078
0.46877
-0.474191
0.469537
-0.479329
0.0011633
0.328337
-0.338089
0.000256675
4.27798e-05
8.91624e-05
0.000525191
0.00126624
0.00303229
0.00256283
0.00567245
0.00312547
0.006615
0.00677069
0.0162527
0.013813
0.0146493
0.00649528
0.0864215
0.00117352
0.00206329
0.000971841
0.000216692
-0.000780553
-0.0027919
-0.00310288
-0.00118611
-0.00111312
-0.000726559
-0.000162438
0.000108769
0.000241116
0.000394398
0.000348984
0.000207755
-0.0010462
0.00140619
0.00133028
3.27105e-05
0.000156589
0.000284655
0.000456303
0.000809507
0.000922163
0.000864317
0.00174664
0.00204569
0.00148698
0.00332771
0.0043563
0.00359228
0.022711
-0.0287902
-0.04109
-0.00799481
0.0044933
0.00598219
0.00612717
-0.10108
-0.00170287
-0.00097727
-0.00150325
-0.00983912
-0.00383105
0.213994
-0.00279691
-0.285157
-0.00206842
-0.0129242
-0.264064
-0.01147
-0.0155999
-0.165678
-0.073652
-0.126777
-0.315428
0.0305875
0.080432
0.00542575
-0.0042375
-0.00356742
-0.00662491
0.00186209
-0.191596
0.273054
0.00193049
-0.0600979
0.0265274
0.0946183
0.000448053
-0.117932
0.0749144
0.0759911
-0.000552917
-0.122028
0.0802301
0.0668922
-0.00130433
-0.111824
0.0253463
-0.151287
0.0668223
0.105936
-0.147057
0.04444
0.0218948
-0.00891364
-0.00198867
-0.000707524
0.000163871
0.000332053
0.000501062
0.00134002
0.00249564
0.00314895
0.00297036
0.00437082
0.421199
-0.42091
0.00182468
0.423121
-0.423117
0.380433
-0.380594
0.380965
-0.382436
0.00138725
-0.199597
-0.00101557
0.194549
0.00138944
-0.197444
-0.000221231
0.194123
-0.00114781
-0.00079522
0.0628122
0.00122167
-0.0622506
0.471036
-0.00025705
-0.301417
0.000109293
0.304369
0.393103
0.00183098
-0.317389
-0.000601242
0.37474
0.00709875
-0.323041
-0.00232914
0.29017
0.368395
0.00630101
-0.39755
0.00937522
-0.33041
-0.393688
0.00846379
0.358007
0.29777
-0.324761
0.0102743
-0.00876885
0.0030698
0.0015799
0.000881589
0.000169206
-0.000617915
-0.00163146
-0.000786716
-6.34213e-05
0.000666632
0.000412983
0.000591434
0.000252163
0.423973
-0.42519
0.00173541
0.424587
-0.428363
0.383137
-0.383747
0.388625
-0.375787
-0.0145524
-0.198197
-0.00626639
0.20104
-0.00131498
-0.204195
-0.0027416
0.19548
-0.00257593
0.00219158
0.0701859
0.00508099
-0.0557577
0.467737
0.00198508
-0.29609
-0.00233095
0.303146
0.365661
0.00564422
-0.408006
0.0109217
-0.289694
-0.517322
-0.00221911
0.447344
-0.0300231
0.168635
0.00130473
0.122111
0.0767864
0.0449102
0.0288769
0.228523
-0.144824
-0.0130772
0.00598363
0.000123939
-0.000512397
-0.000185146
-7.49713e-05
-0.000869921
-0.00513536
0.00164212
0.277963
-0.199419
-0.322724
-0.0737234
0.0613204
-0.15844
0.507909
-0.234214
-0.286186
-0.276945
-0.161951
0.381564
0.421886
0.0220209
-0.2611
-0.00944447
0.39059
-0.00839938
-0.291013
0.00283723
0.326087
0.391092
-0.00486051
-0.30905
0.00102115
0.32153
0.00172371
0.00196899
-0.380319
0.00588526
-0.366891
0.0338932
0.0346756
0.00106108
-0.204519
-0.342497
-0.239043
-0.168877
-0.356129
-0.126019
-0.0639817
0.0373555
0.0106284
0.482248
-0.00748889
-0.291296
0.00217274
0.309912
0.399565
-0.00746932
-0.308396
0.00119965
0.386601
-0.00270081
-0.314326
0.000406691
0.318482
0.387521
0.000255315
-0.387652
-0.000339622
0.000389736
-0.385324
0.00689735
0.00705262
0.0192759
0.00584802
-0.359946
0.0163311
-0.29111
0.00107152
-0.0533822
-0.0831698
-0.0225593
0.0226844
-0.00919702
-0.444625
-0.00123388
-0.0031074
0.0627793
0.0012524
0.472349
-0.00241341
-0.300592
0.000474163
0.303877
0.395749
-0.000257231
-0.316069
0.000109849
0.38161
0.00271066
-0.31992
-0.000807834
0.307605
0.380605
0.00607002
-0.392488
0.0010152
-0.000600574
7.25612e-05
0.000299188
0.000337479
0.000243674
0.000152739
7.99244e-05
-0.00118945
-0.00310284
-0.000743448
-0.000823213
-0.00103728
-0.000125195
0.000426802
0.000658944
0.000826973
0.000188624
0.000314405
-0.000192647
-0.000232142
-0.0011065
-0.000561611
0.431703
-1.76901e-05
-0.431544
0.434001
3.72734e-05
-0.438382
0.438594
-0.433473
0.437683
-0.000651746
-0.444554
0.437553
-0.43517
0.43123
-0.00193641
-0.439612
0.419671
-0.418206
0.4186
-0.419861
0.00188915
-0.431548
0.440301
0.00100081
-0.437899
0.000746454
-0.437957
0.445423
0.00059867
-0.443389
0.000273552
-0.439509
0.446111
-0.439833
0.440156
0.000110447
0.438668
-0.438054
-0.000164925
0.44325
-4.81577e-05
-0.445211
0.43919
-0.437922
-0.000953095
-0.500984
0.3087
-0.000464231
0.495743
-0.00237458
-0.498358
0.311922
0.00130138
0.482873
-0.42396
0.40676
-0.00148377
-0.413756
-0.000486914
0.403624
4.36314e-05
-0.403521
0.000907451
0.414076
0.00150921
-0.406865
0.42501
-0.484194
0.00343341
0.00512812
0.00467578
0.0172209
0.0117413
-0.242812
0.250429
-0.246748
0.246695
-7.34147e-05
-0.000728071
-0.000692993
-0.250408
0.242648
-0.0118744
-0.00684253
0.129763
-0.144932
0.000511059
-0.000946048
0.402919
-0.407917
0.408153
-0.403122
0.416634
-0.438632
-0.0119365
-0.00457178
-0.129762
0.00681845
0.144866
-0.00597829
0.00266236
0.00256351
7.50413e-05
0.000131931
0.000192358
0.000214897
0.000173156
-0.439516
7.01897e-05
-0.439785
0.440186
-0.44486
0.439767
0.000115184
0.445224
-0.438751
-0.000101114
-0.500785
0.307677
1.89423e-05
0.49944
-0.306872
1.08595e-05
-0.280596
0.285662
0.00284712
-0.28139
0.286181
0.0039016
-0.280396
0.290415
0.00728453
-0.278348
0.296976
0.00626072
-0.281459
-0.00942727
-0.00010609
-0.00136494
0.00238985
0.000326153
0.00124465
-0.000168912
0.000346982
-0.000955066
0.0013603
0.00552405
0.290922
-0.305168
-0.000421551
-0.270279
0.307389
0.0300354
0.0123156
-0.00049073
0.0121285
-0.203372
-0.000288622
0.31922
0.0186102
-0.47638
-0.00306025
-0.00476363
0.0249319
0.0171427
-0.0227011
-0.241775
0.369702
0.120034
0.393203
0.146147
0.0831629
0.0199754
0.0606947
-0.342734
0.438016
-0.415921
0.0118931
0.0019802
-0.018875
-0.00503941
-0.00262317
0.00747671
0.00169835
0.000677638
0.000802935
0.000636277
-0.500507
0.307383
-0.307876
0.501259
2.33142e-05
-0.000777454
-0.00229056
-0.000506736
-0.000662992
-1.76231e-05
0.00014906
0.00081811
0.000611003
-0.438508
2.60135e-05
-0.443267
0.439588
-0.499859
0.306781
0.00131555
0.503185
-0.309767
0.00301056
0.00032465
-0.00100157
-0.00180359
-0.00598009
-0.0044648
0.32434
0.469545
-0.489903
0.0402664
0.00709478
0.00332356
0.0117868
0.00574421
0.0138635
-0.343001
0.0120243
0.0328654
-0.348527
0.00275425
0.00150746
0.00107472
0.00197941
0.00302153
0.00411843
0.00189325
0.00123767
0.000712299
0.000532428
0.000415226
0.000611119
0.000809502
0.000570817
0.000443806
0.000585452
0.000734748
0.000611846
0.00107312
0.00111494
0.000586869
0.00129789
0.00108642
0.00154724
0.00114876
6.40225e-05
-0.000934991
-0.000327022
0.00217215
0.00407121
0.000344584
-0.0231925
0.00277132
0.000562411
0.000940916
0.00115135
0.00126968
0.00105229
0.00225582
0.00140165
0.00264837
0.00146928
0.423521
-0.431912
0.00215656
0.415251
0.00694377
0.00136116
0.00337887
0.0176101
-0.0680206
0.1686
-0.134384
0.28337
0.0414127
0.193644
-0.155845
0.126042
-0.135969
0.0860635
0.0980846
-0.148499
0.0339794
-0.154773
0.0909412
0.0944891
0.185443
-0.00861736
-0.00233017
-0.0236022
-0.0011363
-0.107649
-0.00167087
-0.000754459
0.000657396
0.000887197
0.00167846
0.000990633
0.000656497
0.000853533
0.000649843
0.000167481
0.000591645
0.00035115
0.00240336
0.00114877
0.000491915
-0.472545
0.470495
0.00106351
-0.300551
-0.000716221
0.306207
0.385932
0.0050925
-0.318851
-0.00190234
-0.389563
0.00165796
0.000918628
0.000228802
0.000474419
0.000239709
0.00251029
0.000603702
0.00027925
0.000456129
0.000436674
0.000448126
-0.000603923
-0.00141247
-0.0031244
-0.353865
0.00631942
0.325908
0.018683
0.337938
-0.298791
-0.326077
0.384727
-0.257891
-0.242837
-0.201191
0.00226154
0.00215654
0.00197137
-0.382465
0.0129396
-0.00149204
-0.0620774
-0.000119342
0.00494523
-0.000520057
-0.468533
-5.88569e-05
-9.45131e-05
0.0636345
0.00229754
-0.0616625
0.000448996
0.00288559
0.000855672
0.00162461
0.000414483
-0.391275
0.000461317
-0.380858
0.00124922
-0.000237486
-0.395082
-0.000232147
0.315789
-0.00315893
-0.00141477
-0.397912
0.0062449
-0.479082
0.0188494
0.0128001
0.09733
0.0101611
-0.491889
0.0339215
0.00133418
0.00396305
0.0279658
0.186301
0.441178
0.229094
0.336896
-0.0165
-0.00467975
-0.401729
-0.0114434
-0.0227541
0.0106295
0.227308
0.327783
-0.0172101
-0.0055816
-0.00169282
0.311103
-0.386683
-0.00577837
0.000399402
-0.0175949
-0.0316442
0.000636077
0.209912
0.330119
-0.0181548
-0.00595325
-0.00197782
-0.389654
-0.00194873
-0.000253612
0.000140961
0.00180223
0.0046794
0.00141934
-0.0258731
-0.00738408
-0.000324968
-0.00266437
-0.00640451
-0.00400046
-0.00686437
-0.00128432
0.191683
0.369618
-0.0690924
0.059602
0.0265863
0.0330618
0.00922395
-0.00211642
-0.000798113
-0.000174042
0.000110247
0.00030231
0.000781699
0.00242382
-0.000127785
-0.000157
-0.00106042
0.00157534
0.000884456
0.000978004
-0.00189131
-0.018485
-0.0256954
-0.00776788
0.00272679
0.00275326
-0.497652
0.436456
0.00131764
0.00137228
0.0013737
0.00263158
0.00327198
0.00311307
0.000656262
-0.00846672
0.124295
-0.415999
0.0211601
0.00118604
0.00110399
0.000620917
0.00060096
0.0010937
0.000400376
0.00036592
0.000334088
0.000534235
0.000187832
0.000241918
0.000235723
0.000902081
0.000895706
0.438755
-0.000163985
-0.438442
0.438632
-0.000653432
-0.434231
0.433935
-0.438156
0.444776
-0.000451053
-0.438408
0.436818
-0.436466
0.00167024
0.505408
-0.314093
0.00595445
0.00262054
0.00209621
0.0011926
-4.05221e-05
-0.0104798
-0.0176761
-0.0356649
-0.0841266
0.00455442
-0.0361801
-0.011955
-0.00355585
0.00485991
0.0041372
-0.000498089
3.41246e-05
0.00096533
0.000498825
0.445758
-0.439557
0.440224
-0.445606
-0.000142844
-0.438739
0.443867
-9.44435e-06
-0.444978
-0.000636706
-0.435707
0.438671
-0.000249827
-0.44018
0.433181
-0.499407
-0.0016034
-0.00240292
-0.00102526
0.000309301
0.000586952
0.00221958
0.00514376
0.0213989
0.0859601
-0.0267339
0.856428
-0.0204811
-0.00449181
-0.0156487
-0.150143
0.0303982
0.085988
0.00748394
-0.00123849
-0.0839851
-0.00136771
0.00257391
0.00623704
0.000396574
0.000481138
0.00656148
0.00348311
-0.264798
0.218169
-0.00871288
-0.00610871
-0.000420238
0.0447322
-0.0101818
0.0370103
0.0593122
0.0956275
0.190114
0.0471758
-0.122819
0.0483579
-0.1545
0.0379179
0.0210863
-0.117371
0.00661217
-0.00239343
0.000273138
-0.000587139
6.38278e-06
0.00221247
-0.00104015
-0.00232943
-0.000325959
-0.00272854
-0.000958861
1.32857e-05
-0.000144366
0.000181818
-5.73984e-05
-0.00015243
-0.000876877
4.07793e-05
0.00122903
0.00248426
0.010231
0.108543
0.45573
0.0261076
-0.0809982
0.292776
-0.00471022
-0.0625694
-0.020801
-0.0298994
0.850089
-0.0162477
-0.00472867
0.0053304
0.00215854
0.00545073
-0.0759902
-0.00163722
-0.00176613
-0.0163667
-0.151174
-0.12918
-0.0779217
-0.304826
0.0310619
0.075936
0.00389249
-0.00428333
-0.00449669
-0.00239217
-0.0938141
-0.00464245
0.0449926
-0.0269981
0.0478861
-0.00270237
-0.0855808
-0.0050573
-0.00280252
-7.9816e-05
0.00521052
0.0190726
0.0024948
0.00330641
0.0177292
0.0172981
0.000829153
-0.00177559
-0.000446106
0.00105182
0.0030002
-0.00136568
-0.00111334
0.0134875
0.323385
0.0140736
-0.000352179
0.0019111
0.000477249
0.000162268
-0.000135437
-0.00149451
0.00117978
0.439278
-0.501305
0.00127713
0.000532192
0.000438966
0.000449997
-0.502418
0.440015
0.000101953
-0.439594
0.445669
-0.445193
0.000352765
0.440171
0.000322072
0.000126934
8.98901e-06
-8.36313e-05
0.00055572
0.00105515
0.000195938
8.16386e-05
-0.000216827
-0.000959482
0.00152094
0.438023
-0.432071
0.431824
-5.92355e-05
0.000116341
0.000209331
0.000182914
-9.80424e-06
0.439897
-0.502914
-5.70913e-05
-0.000184461
0.000154388
-0.000684867
-0.000723738
-0.502904
0.438571
-0.000532359
-0.000398958
-0.00103427
0.00101096
6.31551e-05
0.000119159
-0.0130949
-0.0208703
-0.0847974
-0.0135331
-0.00140456
4.81016e-05
0.000424811
2.50063e-05
0.000106037
0.00122959
-0.00136161
-0.00156549
-0.000359465
-0.000233586
-0.00190696
-0.00120329
-0.00112879
0.000324077
-0.00173881
0.00132466
-0.00195133
-0.00677815
-0.000588101
-0.00240103
-0.0150217
0.0107247
0.0298974
-0.00061497
0.00119741
-0.428967
0.00326329
0.013241
0.0867565
-0.00176596
-0.00251562
-0.0186912
-0.176648
-0.108485
0.0246624
-0.00313984
-0.00247968
-0.00196071
-0.0223809
-0.00285665
0.163092
0.0493441
-0.00835794
0.0347212
0.245847
0.021432
-0.00360442
-0.00643009
-0.00759569
-0.0114126
-0.283238
-0.252172
0.00186663
0.0255577
0.00945798
0.0410532
-0.0776666
0.000480391
0.00452923
-0.0115664
0.000163565
-0.384249
0.00534536
0.00108714
-0.000288188
-0.00167578
7.57601e-05
-0.00137045
-0.462755
0.320617
-0.372986
0.0194095
0.184416
0.315225
-0.000225112
-0.000343124
0.00111041
-0.0796602
-0.302102
-0.0209947
-0.00478886
-0.00117196
-0.00255779
-0.0889776
0.000680249
-0.278807
0.00709761
-0.27075
-0.00209537
0.036958
0.00136804
-0.106494
0.0501842
-0.0100547
0.334409
0.000392229
-0.285189
0.0213453
0.0890937
0.0167114
1.71678e-05
0.0014854
0.000314806
0.00504023
0.323398
-0.504596
0.0016494
-0.16827
-7.71338e-05
0.0220379
0.0346923
0.0193957
0.00655277
-0.000531987
-0.00758941
-0.0202684
-0.0353393
0.000210092
0.206227
0.245254
0.244005
0.171027
-0.406285
-0.382345
-0.0189056
0.387275
-0.00823795
-0.473472
0.0797811
0.013042
-0.0552028
0.0609194
0.00381614
-0.0567819
0.058962
0.0023867
-0.0545761
0.0596008
0.00191052
-0.054176
0.0585486
0.000105541
-0.0558978
0.0562199
-0.0040568
-0.061017
0.0509726
-0.0150984
-0.0806541
0.0304074
-0.0651731
-0.15635
-0.0749737
-0.234267
-0.287658
-0.281331
-0.239251
-0.254656
-0.264761
-0.253308
-0.273591
-0.26008
-0.258397
-0.269342
-0.257501
-0.274891
-0.27306
-0.254621
-0.338676
-0.158651
-0.152662
0.585352
0.0371958
0.329582
-0.162836
0.426362
0.0269566
0.378387
-0.167396
0.403676
0.0224191
0.390181
-0.167911
0.399142
0.0231852
0.410678
-0.162568
0.387423
0.024739
0.503516
0.0607643
-0.0433306
-0.322678
-0.00305556
-0.244228
0.157165
-0.212442
0.186401
-0.200487
0.194425
-0.195176
0.197408
-0.194133
0.197546
-0.192535
0.20046
-0.186276
0.210813
-0.157443
0.24278
0.00431392
0.302865
0.213414
-0.084771
0.238808
-0.222722
-0.0108811
-0.00522996
-0.122098
0.128892
-0.114769
0.212183
0.0287395