/*--------------------------------*- C++ -*----------------------------------*\
| =========                 |                                                 |
| \\      /  F ield         | OpenFOAM: The Open Source CFD Toolbox           |
|  \\    /   O peration     | Version:  2306                                  |
|   \\  /    A nd           | Website:  www.openfoam.com                      |
|    \\/     M anipulation  |                                                 |
\*---------------------------------------------------------------------------*/
FoamFile
{
    version     2.0;
    format      ascii;
    arch        "LSB;label=32;scalar=64";
    class       volScalarField;
    location    "0.8";
    object      gradTz;
}
// * * * * * * * * * * * * * * * * * * * * * * * * * * * * * * * * * * * * * //

dimensions      [0 -1 0 1 0 0 0];

internalField   nonuniform List<scalar> 
5712
(
8949.53
29274.7
7169.93
29970.1
5292.58
30699
8161.44
46341.4
9995.99
63445.1
10041.5
46801.2
9802.51
39175.3
10202.6
35192.1
6150.95
3944.66
16535.9
9949.51
5911.96
3203.94
17636.7
8720.16
6963.68
5288.1
22218.7
16247.8
5272.21
4037.27
21817.7
16436.4
12429.5
5332.73
10845.7
4937.73
5193.34
11867.2
41103.7
10930.8
14758.6
4640.98
51918.5
13779.2
13404.3
4189.75
29971.6
9165.39
15383.5
5148.91
26602.7
8356.85
9264.74
4593.94
12099.7
4843.44
10057.1
5401.65
11725.5
4643.8
12293.8
7102.72
10083.4
4538.75
14240.5
5244.06
4808.13
1715.61
16150.1
11486.5
9630.52
7122.29
16603.7
13656.7
8869.27
7562.12
9692.52
6825.93
14436.3
10123.9
6063.16
4450.59
2711.15
2211.47
5443.59
4623.55
2396.45
2348.46
6180.13
4161.16
2862.21
1822.53
9070.82
5074.26
7110.52
8415.62
12985.1
9363.24
10767.1
14746.7
5740.31
2816.66
4016.84
4690.44
2625.96
1143.32
1552.76
1655.22
13135.1
23268.3
8735.17
25794.9
15066.7
22584.8
10593.6
26672
16671.8
20122.3
13314.4
25492.7
16629
17889
14208.2
14162.9
15189.2
17953.6
18601.8
20101.6
21659.7
30641
14672.6
12817.9
12217.6
14013.1
21110.3
27248.6
24579.8
31389.2
30594.2
24924.8
23282.3
30765.1
29752
21412.3
21102
28529
28397.2
13349.7
10802.7
14306.2
13011.1
16626.3
15781.6
18814.1
18818
25656.2
27034.2
12313.5
11234.6
13238.2
13922.1
14721.9
16904.8
17137.4
20463.4
22262.4
27028.4
10643.5
8360.41
6976.01
8517.27
13000.3
15052.2
8695.12
13255.3
6451.2
8040.7
10029.5
8344.96
1779.35
5452.53
578.26
1718.6
4227.46
8605.98
1228.22
2714.85
1189.73
4977.2
327.301
1546.42
6666.63
6615.15
7740.98
5049.08
10878
8902.92
12920.8
9300.42
1868.4
3544.57
3828.11
2316.5
1822.98
2316.96
2606.44
1954.06
19907.3
12230.2
3939.87
22362.4
13020.5
4292.79
19116.5
12090.1
4158.67
21857.4
12992.1
4285.83
17498
11106.1
3690.14
21104
12931.2
4335.7
7704.9
4647.01
1423.48
10913.6
7315.57
2503.2
13816.8
9470.43
3260.85
16534.8
10854.5
3630.2
20719.1
13131
4553.57
8728.13
5392.74
1880.67
10892.2
7947.2
3036.41
13624.3
10013.5
3732.34
16921.3
11925.9
4319.81
21026
13421.4
4815.11
249.923
2039.51
2799.33
4129.06
2488.42
2765.12
6136.17
5740.17
579.245
906.993
617.457
942.386
408.25
1253.94
772.68
1654.68
2876.81
1441.57
3806.53
2258.59
1926.73
3258.36
3268.78
184.049
6677.74
1055.41
-2776.72
-371.068
1245.7
461.611
493.792
24.1113
8629.72
3480.91
2311.91
1280.14
8784.6
3584.19
2918.5
1600.27
8723.21
3809.19
4071.58
2478.17
2682.37
1666.79
663.596
690.422
13073.2
11337.5
5933.41
6014.38
15161.3
13958
7294.91
7176.94
4799.07
4823.6
10428.9
8380.9
3220.92
3396.17
1353.38
1769
4203.96
4133.26
1866.95
2127.45
2466.11
2758.18
939.751
1527.64
3879.17
2267.99
3732.67
2167.04
6380.15
3095.07
5781.4
3108.29
2009.76
1480.01
2198.13
1284.46
706.093
682.61
1214.9
626.084
9818.15
5892.67
4313.19
3817.99
9855.02
6210.81
4311.87
3813.55
10491.6
6854.72
4376.75
3789.6
14363.1
16765.4
12085.1
7337.6
3409.47
15828.1
13376.6
11316.6
8410.2
4357.79
14729.3
12245.8
8967.43
6174.27
3106.89
4153.13
3098.66
3409.62
3261.52
4560.7
3278.27
3558.87
3347.31
5262.9
3742.73
3791.33
3526.23
11861.6
8490.74
9953.79
6787.65
7020.45
5331.79
5753.98
4448.27
3664.01
3681.43
9907.84
8629.35
7944.14
6745.15
6061.67
5195.8
4591.26
4141.14
2815.27
3477.84
7057.57
4806.03
4550.9
2875.65
10029.7
7687.64
6748.17
5535.4
3329.52
2034.56
4972.17
3553.67
4298.49
2064.3
1267.06
682.064
4940.92
3626.95
1389.88
1171.33
3384.3
1476.43
1076.67
510.696
2307.78
1939.26
1554.03
2091.2
3334.11
2832.93
2012.83
2647.92
2342.77
1345.76
1126.59
1423.76
508.078
198.212
-147.54
112.68
1974.91
833.341
243.771
2036.17
566.692
152.585
2158.57
965.426
295.097
2124.25
621.934
175.131
2354.07
1119.68
308.875
2246.79
688.977
174.593
5543.47
3102.32
862.639
4193.55
2192.46
614.079
3384.26
1706.65
500.477
2750.87
1316.56
335.237
2376.14
727.637
144.571
6548.63
3574.01
1109.24
5008.59
2582.3
775.293
3865.21
1946.8
587.277
3023.34
1368.47
375.051
2594.72
707.384
183.854
1181.74
377.277
94.9214
-12.2927
490.26
161.442
46.2461
3.22683
1230.56
400.279
111.858
3.98853
597.245
205.564
86.687
34.5392
1288.27
426.642
146.353
35.0612
937.124
344.686
94.8572
14.7882
593.643
252.817
31.3025
-25.145
404.699
209.227
74.0787
27.6425
966.626
349.601
80.8912
-34.1064
779.731
274.797
99.6625
-21.3919
1213.44
405.128
126.81
2.13931
1042.41
343.735
125.367
-33.4656
680.426
271.619
72.2271
-13.6616
532.54
205.255
84.8563
4.8843
384.639
180.351
72.1136
30.1169
286.947
132.031
65.9827
27.3049
1461.55
458.353
115.471
-35.8759
1359.73
416.505
151.207
-44.8423
1449.14
456.702
117.946
-35.0982
1319.14
402.703
150.616
-44.95
1406.28
445.85
144.667
-9.92784
1239.69
376.833
163.139
-27.2684
1207.89
393.61
162.331
39.6479
1351.37
410.445
207.313
-27.428
1036
334.745
148.565
6.59834
998.945
285.288
122.821
-18.8608
380.164
102.024
34.7843
2.61697
1050.52
302.927
128.307
-16.8625
404.383
109.97
39.5479
5.98577
1098.51
321.002
141.983
-10.2109
426.266
118.494
44.4125
9.41244
1004.87
297.778
150.821
-1.54398
425.1
120.613
53.9059
15.121
917.848
283.428
146.348
9.94216
388.097
121.25
63.8425
21.4336
574.73
187.534
73.6143
2.49857
327.702
124.032
54.8104
22.2495
709.958
217.721
99.4079
3.80681
358.921
124.578
61.0641
22.9207
412.337
149.698
58.6656
7.35744
251.074
105.996
44.8879
20.7256
228.042
102.517
50.2799
21.2405
159.193
80.5532
39.2803
21.4173
0.353701
0.948244
0.507576
0.223585
0.113177
0.834649
0.579923
0.279515
0.120397
0.0605945
3.76469
2.2034
0.994792
0.419061
0.20959
4.64593
2.02211
0.848716
0.350152
0.174159
6.70505
3.52734
1.54723
0.647685
0.32424
13.3952
6.20626
2.60337
1.07546
0.536918
13.3951
6.59973
2.84135
1.19373
0.603204
18.29
8.18123
3.44837
1.44882
0.736439
7.64994
4.6125
2.05964
0.870611
0.439248
8.02744
4.29612
1.87398
0.787937
0.397261
6.70216
3.93213
1.73004
0.723945
0.362673
10.7173
4.87179
1.99124
0.81253
0.403259
8.68079
5.08659
2.2923
0.979565
0.498718
10.0752
4.86814
2.10145
0.887243
0.45013
14.3991
6.49214
2.75081
1.15985
0.591004
12.0834
5.33322
2.25519
0.952101
0.485785
-1.60208
0.583642
0.381711
0.172964
0.0880324
-1.16063
0.19773
0.146452
0.0668434
0.0339991
0.627117
1.40903
0.693112
0.295837
0.148087
-0.336726
0.506296
0.261305
0.111749
0.0558308
3.00691
2.2171
0.999531
0.418746
0.209054
2.91799
1.53101
0.631446
0.255616
0.125694
8.90856
4.17601
1.71675
0.698801
0.345583
6.25663
2.75901
1.0974
0.440013
0.215934
14.2536
5.53409
2.15517
0.860878
0.422663
2845.45
6482.51
2981.57
6474.96
3373.57
6477.23
3950.71
6673.6
3993.25
6721.88
1670.81
2389.77
2665.07
4015.96
892.672
1186.76
252.133
345.557
14628.6
3559.32
835.917
193.252
50.8583
4032.89
1103.23
298.965
70.1546
16.2468
14327.1
3464.13
814.054
186.942
49.6239
4114.5
1226.56
308.598
73.9874
19.371
13449.4
3239.82
760.69
174.916
46.6071
3990.82
1181.84
296.487
70.7538
18.6021
12039.3
2886.39
678.176
156.357
41.8314
3837.82
1113.36
276.129
65.4094
17.1337
9824.42
2353.29
555.407
128.738
34.6449
3557.03
1007.45
247.86
58.4975
15.321
4454.09
1121.67
270.998
63.7227
17.3254
1710.81
492.574
120.554
28.0349
7.34375
6764.1
1675.7
400.582
93.436
25.264
2530.69
718.962
177.191
41.8521
11.053
2578.33
655.363
159.382
37.7419
10.3098
952.482
284.539
69.3676
16.1219
4.25862
874.052
221.537
54.0814
12.8642
3.52065
351.787
97.5978
22.3133
6.37364
1.33552
-955.345
-224.677
4981.7
-1459.85
810.601
868.346
2513.6
3242.12
2052.9
3896.91
3415.81
5281.99
4260.93
5277.62
2170.6
2911.39
2249.16
2672.14
1165.28
1211.63
2098.47
1344.08
666.513
20.5896
-164.434
-189.1
188.819
14376.3
4780.41
5193.79
3935.68
665.585
696.794
3410.53
-207.39
157.528
-32.6656
-92.0143
7759.28
4303.8
2108.62
1447.43
3548.95
2191.31
815.166
1400.65
-464.285
-38.4746
1064.09
929.35
8749.63
3915.45
5531.89
2748.21
3603.13
4981.06
1636.35
-72.2546
1318.63
1323.78
954.143
727.031
568.684
366.039
981.771
724.606
516.236
331.997
132.043
572.95
459.815
332.922
201.516
67.7105
17.8308
14.4724
10.6833
6.61161
2.2432
-145.673
-120.16
-88.4639
-53.6888
-17.9355
-167.723
-138.568
-102.208
-62.1416
-20.7812
165.192
135.649
100.749
62.3435
21.219
9580.73
7285.61
5321.1
3937.54
2833.4
3653.34
2707.37
2055.5
1393.88
613.588
3803.46
2795.23
2024.67
1320.06
562.881
2816.33
1974.83
1421
911.627
338.153
534.996
370.331
295.021
198.171
75.5761
624.503
524.891
399.598
254.341
89.5214
2722.09
2076.78
1464.79
902.693
330.415
-9.82629
99.9041
121.007
96.4323
38.1376
151.266
139.522
117.333
81.2867
30.2757
49.7986
97.8768
108.121
83.6462
32.2397
-92.3286
-80.8186
-59.7498
-35.0709
-11.1231
5262.85
4160.96
3100.79
2336.75
1691.1
3185.68
2347.98
1709.57
1107.41
453.603
1786.96
1431.67
1051.09
655.611
231.408
1214.35
961.784
697.534
429.671
149.419
2857.09
2183.59
1542.86
941.105
333.932
1856.43
1479.15
1074.78
660.106
226.226
687.933
546.361
395.621
241.996
82.8709
1195.48
954.734
690.559
419.363
141.799
-393.511
-308.229
-215.408
-125.226
-40.6916
-35.3782
-28.5838
-18.9232
-9.47425
-2.53346
903.005
719.25
521.398
319.028
109.228
794.791
637.51
464.193
284.066
96.7493
5319.5
3521.57
2624.76
1978.79
1368.76
2833.65
2051.79
1440.75
917.717
367.956
3841.9
2877.93
2062.57
1371.81
576.233
2093.84
1588.91
1130.51
714.185
276.44
2946.45
2282.55
1629
996.708
348.005
3667.24
2604.56
1867.27
1196.68
445.487
1386.01
1099.89
792.641
481.275
163.251
-66.2633
-55.3792
-40.0103
-23.1838
-7.36023
1111.85
882.917
640.687
393.771
135.564
-36906.8
-59026.9
-30793.4
-47647.4
-32216.7
-65107
-38370.6
-82820.2
-23715.4
-16575.9
-25960.1
-16646
-21549.8
-14132.6
-25953.4
-14208.6
-31321.3
-24251.5
-44606.5
-32893.5
-27019.2
-22144.9
-37087.7
-28489.9
-21248.4
-22271.2
-17669.9
-17492.5
-21351.4
-19511.5
-48852.8
-13539.5
-19235.8
-7405.16
-58658.7
-16493.2
-17130.2
-6749.74
-37081.6
-11699
-19731.6
-7720.18
-33494.2
-10340.1
-16930.4
-6917.62
-20984.9
-7693.2
-16173.4
-7230.6
-18188.4
-6686.49
-16681.6
-8317.58
-14548
-5895.43
-18126.4
-6501.98
-6343.26
-2259.8
-13898.1
-9882.08
-11969.9
-7728.61
-11926.4
-9898.44
-10337
-7562.63
-12397.6
-7615
-14717.7
-9953.43
-8279.36
-5262.37
-4562.13
-3040.12
-7143.85
-5097.17
-3926.09
-2951.43
-8490.5
-5011.05
-4710.89
-2643.41
-11126.4
-5753.4
-7703.99
-8617.87
-14332.3
-9793.28
-10983.8
-14704.1
-7483.14
-3409.58
-4645.13
-4932.9
-4010.73
-1638.8
-2155.02
-1892.38
-17276
-21643.3
-9935.36
-24870.7
-17958.2
-20633.2
-11436.2
-25382.8
-18099.6
-18636.6
-13618.8
-24024.5
-11928.4
-9493.75
-13548.3
-15260.5
-15361.9
-12715.1
-15255
-18308.3
-20338.5
-28950.7
-9131.38
-9980.44
-11175.5
-13514.8
-20417.9
-20914.2
-14700.5
-26796.5
-20834.4
-19388.7
-14438
-26405.3
-20784.5
-17116.2
-13596.8
-24657.8
-20643.2
-10338.4
-8268
-11513.4
-9442.43
-13216.3
-11094.4
-14988.3
-13101
-22386.4
-20791.9
-9474.88
-8469.54
-10425.4
-9876.87
-12031.1
-12151.6
-14674.6
-15372.3
-20225.2
-21609.3
-8998.5
-7151.5
-6610.12
-7998.68
-10274.6
-13023.6
-7765.07
-12030.6
-6430.19
-7826.36
-9180.65
-7510.18
-1932.62
-5362.75
-895.226
-1835.18
-4075.79
-8194.59
-1344.36
-2612.62
-1472.79
-5047.48
-720.442
-1747.25
-6736.38
-6487.02
-7758.78
-4893.14
-10408.9
-8198.63
-12559.8
-8527.24
-2119.09
-3636.68
-3963.96
-2352.91
-2155.71
-2508.46
-2799.08
-2075.51
-9018.78
-3100.47
-12276.6
-4167.43
-9224.51
-3252.09
-12572.3
-4486.62
-9179.15
-3206.05
-13231.3
-5028.45
-5074.78
-1555.03
-6652.28
-2479.88
-7890.11
-3001.45
-9726.49
-3617.46
-14037.4
-5502.72
-6090.59
-2024.31
-6723.29
-3053.91
-8419.16
-3715.99
-11087.1
-4636.7
-14823.4
-5564.56
-8255.77
-7628.76
-6666.12
-6370.51
-13755.9
-10591.2
-11450.7
-9481.9
-5237.75
-4062.24
-2206.64
-1474.87
-5102.12
-4428.6
-2217.55
-2065.41
-4350.5
-5911.47
-4875.34
-6288.54
-4676.15
-3613.18
-4903.25
-1733.64
-9239.07
-3168.96
1508.62
-943.02
-2172.4
-1502.71
-927.688
-700.509
-2490.02
-1384.04
-991.672
-485.115
-2769.43
-1516.19
-1571.4
-668.821
-3250.4
-1850.48
-2541.84
-1188.84
-2152.74
-772.884
-543.723
87.527
-6522.6
-6714.51
-5333.27
-4772.79
-9067.89
-8938.84
-7706.37
-6429.42
-3497.75
-3450.31
-4663.16
-4915.2
-3596.51
-3010.13
-1966.21
-1692.62
-5235.89
-4140.57
-2956.91
-2386.71
-2269.43
-2131.12
-1085.65
-1195.47
-2190.53
-1197.6
-2532.88
-1411.78
-2882.1
-1673.5
-3579.62
-2072.28
-1291.29
-711.478
-1519.26
-727.801
-364.947
-62.3897
-760.237
-168.489
-3252.8
-3567.63
-2112.52
-2635.38
-3332.76
-3729.47
-2168.78
-2640.59
-3707.89
-3735.4
-2321.82
-2559.91
-4266.33
-6770.75
-3333.79
-2379.35
-1625.01
-9627.91
-6645.4
-5354.63
-4381.39
-3009.35
-7760.77
-6062.86
-4545.87
-3483.8
-1955.88
-3647.94
-3189.05
-3472.11
-4922.14
-3685.38
-3078
-3398.7
-4768.91
-3771.68
-3254.98
-3238.01
-4528.16
-8833.24
-6750.16
-7264.35
-5411.68
-5531.97
-4199.31
-4517.67
-3731.39
-3107.71
-4222.86
-7115.79
-6584.42
-5463.36
-5162.62
-4163.26
-3993.78
-3335.96
-3448.43
-2073.5
-3548.49
-4527.57
-3273.23
-3315.53
-1739.75
-6986.24
-5914.44
-5474.42
-4272.44
-2279.95
-1091.43
-3148.13
-2355.76
-3707.7
-1507.48
-984.922
-353.999
-4489.94
-3088.65
-1281.77
-905.979
-2781.2
-976.513
-699.602
-181.836
-1553.77
-1309.74
-1128.23
-1813.16
-2198.63
-2060.96
-1481.76
-2400.68
-1823.98
-967.098
-760.03
-1194.43
-112.747
89.4933
478.345
105.798
-2164.77
-654.768
-3192.96
-292.403
-2162.45
-744.24
-3160.74
-315.62
-1987.88
-585.484
-2921.48
-226.661
-3903.58
-1062.39
-3163.7
-877.46
-2754.34
-878.686
-2199.31
-514.715
-2771.15
-336.379
-4808.97
-1204.69
-3756.08
-796.67
-3039.03
-670.58
-2566.66
-438.085
-2898.36
-382.712
-575.007
-179.896
-20.8886
47.8296
-219.615
-68.5495
-12.5892
10.8321
-600.01
-181.74
-26.6743
36.7049
-227.75
-63.0027
-33.141
-12.9501
-650.193
-186.837
-48.0965
11.9085
-306.863
-61.3317
35.261
48.3087
-12.9472
44.7524
115.242
96.3039
227.121
141.069
98.9721
54.2532
-448.675
-109.476
36.4923
96.4754
-358.852
-64.6819
5.26203
81.1947
-675.729
-182.339
-25.9516
52.0666
-545.987
-118.86
-17.8049
100.54
-203.778
-23.6879
50.6307
75.3173
-172.305
-9.35965
17.767
52.0463
72.5859
74.5309
59.1386
36.1191
42.5953
56.5398
36.3512
29.7295
-806.262
-241.959
-29.9844
84.2572
-894.988
-242.967
-90.2671
95.6569
-793.066
-231.86
-26.5413
87.0338
-870.53
-232.561
-89.2518
96.071
-767.537
-214.765
-53.0188
59.973
-813.626
-212.697
-103.929
78.1575
-573.833
-147.759
-59.8438
16.2911
-871.335
-216.701
-131.762
92.146
-532.532
-117.354
-46.685
62.0938
-758.079
-172.259
-83.3553
56.2441
-314.834
-63.2282
-16.2322
9.97972
-730.926
-164.242
-79.6389
57.228
-307.48
-61.021
-17.1709
8.43158
-667.94
-145.758
-83.1097
53.247
-277.822
-53.0702
-15.0529
8.77748
-582.756
-124.849
-92.6691
43.0764
-244.657
-44.7907
-20.1907
6.08186
-482.924
-96.4383
-76.5103
33.5581
-165.545
-24.9018
-21.8062
4.39127
-296.01
-41.5056
1.33505
45.8929
-63.7269
11.7796
11.4425
17.2512
-409.381
-75.1383
-32.8854
40.7382
-96.7146
-2.66818
-4.94325
10.7391
-144.883
1.42864
22.2722
43.1694
-12.8468
29.6104
25.4819
21.4308
29.0432
49.6588
32.4829
29.6463
60.2767
52.7598
31.7111
21.1659
8.73933
1.8799
0.494533
0.167782
0.0801411
3.40043
0.851938
0.246418
0.0879577
0.0428999
9.17475
2.43765
0.783283
0.300249
0.151014
4.50862
1.61245
0.60327
0.247083
0.127246
11.1818
3.35852
1.18726
0.476461
0.243312
12.8698
4.76011
1.89571
0.797898
0.413811
15.7354
5.92848
2.37587
0.995162
0.512069
17.6621
7.5532
3.16519
1.33948
0.687942
14.8827
4.58075
1.69339
0.691534
0.354038
12.5229
4.03838
1.52609
0.628143
0.322342
12.858
3.68864
1.32675
0.538903
0.276363
10.1626
3.4276
1.36827
0.580492
0.302684
16.2099
5.44395
2.07115
0.849238
0.433189
12.3526
4.60331
1.82583
0.760301
0.390035
14.681
6.19934
2.58156
1.08946
0.558772
12.0244
5.11942
2.13215
0.89918
0.46102
10.4026
1.78704
0.415497
0.132508
0.0617657
5.03067
0.74746
0.162693
0.0506868
0.02348
10.4589
2.06687
0.578116
0.209648
0.103579
5.03109
0.839395
0.218788
0.0776526
0.0381766
10.1092
2.36498
0.764253
0.298068
0.151146
4.62423
1.13745
0.403868
0.16612
0.0862771
10.156
3.00588
1.1349
0.473901
0.246322
5.62592
1.68737
0.665432
0.283992
0.14915
7.39703
3.02968
1.29816
0.567039
0.299553
-2634.92
-5232.42
-2786.2
-5296.82
-3160.98
-5424.32
-3581.66
-5654.55
-3530.14
-5721.26
-1604.14
-2258.05
-2428.42
-3594.7
-926.476
-1189.75
-338.028
-410.085
-14148.1
-3461.13
-817.786
-190.223
-50.3878
-3852.84
-1071.24
-292.261
-69.0006
-16.0995
-13851.3
-3368.59
-796.599
-184.087
-49.1821
-3933.83
-1189.76
-301.546
-72.7476
-19.1696
-12995.9
-3151.96
-745.008
-172.4
-46.2255
-3812.25
-1145.19
-289.544
-69.5615
-18.4103
-11649.8
-2814.15
-665.625
-154.388
-41.5445
-3655.06
-1077.19
-269.534
-64.3128
-16.9619
-9564.9
-2306.24
-547.353
-127.504
-34.478
-3381.59
-974.994
-242.202
-57.5909
-15.185
-4431.33
-1115.86
-269.885
-63.5696
-17.3197
-1659.09
-481.455
-118.55
-27.7304
-7.30781
-6663.38
-1655.17
-396.921
-92.8852
-25.2015
-2418.08
-697.741
-173.508
-41.2753
-10.9721
-2583.31
-655.439
-159.353
-37.7602
-10.3271
-944.555
-281.924
-68.8483
-16.0618
-4.264
-886.151
-223.191
-54.3587
-12.9283
-3.54228
-366.631
-99.8802
-22.6999
-6.46923
-1.36823
-1239.83
-2553.29
-7944.55
-560.311
-8567.54
-3798.79
-8369.06
-4001.02
-15233.5
-8141.79
-16928.4
-8894.33
-39.1003
-121.859
-191.758
-229.107
-184.946
54.2095
-69.8814
-217.108
-341.915
-405.768
-340.324
-50.1431
-29.2255
-28.0852
-87.8372
-85.5007
-125.368
-127.739
-111.663
-124.413
-75.9387
-117.576
14.9065
-61.7383
692.129
1588.49
2659.95
1891.41
1661.56
663.258
546.604
1455.78
2461.06
2949.18
2460.67
1001.17
-34.9437
-29.2033
-21.8593
-13.4824
-4.55139
-108.963
-91.1291
-68.2685
-42.1374
-14.2308
-171.347
-143.187
-107.182
-66.1153
-22.3215
-204.577
-170.814
-127.754
-78.7534
-26.5786
-165.49
-138.497
-103.795
-64.07
-21.6361
44.8865
34.2464
23.4531
13.56
4.43962
-62.3318
-51.9709
-38.8095
-23.8925
-8.05748
-193.702
-161.569
-120.715
-74.3539
-25.0832
-304.612
-253.652
-189.207
-116.402
-39.244
-360.707
-299.606
-222.95
-136.921
-46.1215
-301.907
-250.19
-185.786
-113.931
-38.3521
-45.8795
-39.3064
-30.0489
-18.7847
-6.37787
-26.1598
-21.905
-16.4295
-10.1498
-3.42936
-25.1615
-21.0922
-15.8381
-9.79355
-3.31072
-78.6528
-65.8932
-49.4504
-30.5649
-10.3302
-76.5927
-64.1999
-48.2045
-29.8069
-10.0763
-112.212
-93.9605
-70.4768
-43.5426
-14.7128
-114.296
-95.6653
-71.7235
-44.2967
-14.9646
-100.097
-83.9609
-63.0778
-39.0156
-13.1902
-111.207
-92.9617
-69.6019
-42.9379
-14.4964
-68.6251
-58.0672
-43.9568
-27.3237
-9.2577
-104.934
-87.537
-65.3871
-40.2551
-13.5743
10.8853
6.89809
3.73253
1.73137
0.502464
-55.5432
-46.702
-35.09
-21.6641
-7.3095
600.93
486.566
354.144
214.473
71.8683
1366.84
1098.04
795.332
481.238
161.63
2248.48
1781.34
1281.07
776.098
262.984
1580.51
1243.98
894.692
544.102
184.954
1416.9
1117.57
799.473
479.878
154.478
586.445
471.674
342.076
206.191
64.5436
474.714
384.454
279.848
169.466
56.7754
1256.83
1012.5
734.582
444.521
149.105
2103.81
1680.33
1212.76
733.25
246.59
2495.65
1976.82
1420.5
858.859
289.793
2078.71
1642.14
1177.68
711.302
239.156
851.722
677.402
489.131
296.98
99.8816
47.3441
131.781
205.014
247.579
211.141
-13.2839
83.1421
232.615
360.918
427.477
362.049
70.7708
35.0151
32.7301
94.9896
91.776
134.877
136.78
123.843
135.251
96.0547
119.131
36.6456
81.5096
-630.183
-1495.38
-2508.36
-1721.89
-1507.16
-524.812
-522.865
-1420.52
-2395.29
-2850.63
-2339.64
-868.886
42.4388
35.603
26.76
16.5624
5.60218
117.987
98.8377
74.1741
45.8502
15.4977
183.408
153.494
115.081
71.0828
24.0168
221.382
185.172
138.756
85.6704
28.9389
189.297
158.812
119.339
73.8318
24.9649
-7.87936
-2.86302
0.403893
1.34219
0.626838
74.4007
62.2892
46.7214
28.8703
9.75674
207.828
173.659
129.996
80.1987
27.0793
321.948
268.515
200.636
123.608
41.707
380.541
316.64
236.071
145.205
48.9553
321.759
267.242
198.922
122.225
41.189
64.5941
55.2411
42.2128
26.4086
8.97483
31.4197
26.3921
19.8624
12.3057
4.16457
29.3798
24.6892
18.5887
11.5204
3.89947
85.1519
71.4388
53.6941
33.2304
11.2393
82.2939
69.0635
51.9255
32.1437
10.8731
120.852
101.332
76.1172
47.0851
15.9208
122.513
102.679
77.0916
47.6691
16.1149
111.15
93.3776
70.2717
43.5279
14.7279
121.061
101.374
76.0431
46.9855
15.8772
86.8829
73.6227
55.8407
34.7778
11.7979
106.65
89.3098
66.9826
41.3756
13.9785
35.6521
32.4874
26.1488
16.9072
5.8301
73.5816
62.1619
46.9699
29.1495
9.86705
-545.331
-439.842
-318.964
-192.677
-64.4948
-1283.54
-1028.28
-742.993
-448.933
-150.739
-2111.56
-1665.22
-1192.89
-721.195
-244.43
-1418.66
-1098.91
-778.59
-468.523
-158.467
-1262.42
-973.917
-680.569
-399.995
-125.555
-443.8
-335.475
-226.803
-127.402
-35.8066
-453.524
-366.764
-266.621
-161.321
-54.0301
-1225.55
-986.574
-715.352
-432.768
-145.166
-2044.39
-1629.96
-1174.51
-709.407
-238.51
-2403.72
-1896.09
-1357.01
-818.12
-275.709
-1962.3
-1536.84
-1092.54
-655.363
-219.472
-722.297
-558.373
-391.457
-232.057
-76.8909
-1915.08
-1181.45
-522.242
93.7554
298.264
372.945
9.21399
-12253.9
-2846.09
-3923.2
-1824.66
-216.962
-3556.64
239.269
1470.12
538.39
-6774.24
-3384.45
-1232.86
-996.906
-3231.96
-1667.22
-598.078
-1134.03
984.3
401.15
-752.041
-578.255
-8322.07
-3686.52
-4909.26
-2396.03
-3276.29
-4158.09
-1337.41
383.673
-903.061
-1078.4
-701.048
-498.5
-401.832
-297.337
-800.451
-543.882
-358.068
-220.281
-89.3734
-443.026
-350.181
-250.027
-149.984
-50.2473
85.9393
73.8752
56.7278
35.6215
12.1408
266.506
222.429
166.054
102.089
34.3814
332.916
277.63
207.177
127.375
42.9032
14.5335
17.2875
15.8162
10.5872
3.59277
-8075.27
-6223.72
-4646.36
-3668.06
-2978.64
-1897.5
-1214.73
-944.778
-725.865
-389.714
-2733.2
-1914.5
-1378.67
-935.088
-444.18
-1186.48
-745.933
-550.46
-382.452
-148.249
-168.472
-125.214
-89.7456
-58.6003
-22.7065
-2826.62
-2158.09
-1521.59
-938.657
-344.76
225.067
191.658
141.322
83.5307
26.45
1236.83
971.432
689.215
410.184
136.195
477.363
392.633
287.805
173.934
57.7927
-4374.36
-3455.7
-2602.49
-2073.92
-1676.62
-2353.79
-1640.65
-1175.66
-780.507
-348.414
-993.383
-760.986
-544.764
-342.073
-125.969
-808.76
-620.17
-440.142
-270.474
-95.8885
-2595.76
-1982.13
-1403.82
-862.194
-309.925
-1374.49
-1064.71
-756.807
-460.539
-158.218
-489.99
-376.942
-265.809
-160.519
-55.1501
-956.055
-753.558
-539.262
-325.815
-110.236
861.02
701.669
512.33
309.875
103.378
361.21
302.788
225.852
138.078
46.1556
-620.722
-481.029
-341.808
-207.788
-71.687
-478.289
-370.554
-262.673
-159.031
-54.4617
-4917.43
-3162.23
-2338.94
-1802.77
-1329.99
-2611.01
-1848.04
-1274.73
-808.28
-329.413
-3222.7
-2332.62
-1629.26
-1094.09
-472.013
-1759.73
-1290.68
-893.79
-561.794
-224.385
-2650.23
-2030.56
-1437.7
-877.975
-308.078
-2926.45
-1966.06
-1382.92
-898.095
-346.563
-1117.43
-873.868
-622.335
-375.836
-127.673
346.373
291.41
218.307
134.032
44.9533
-734.481
-562.034
-396.705
-241.681
-84.0412
-13.5527
-28.0322
-44.6091
-84.0557
-169.487
-310.862
-26774.7
-23762.4
-22156
-25155.9
-19842.6
-15850.2
-17506.6
-13398.6
-23920.9
-21497.6
-22113.8
-21231.6
-19549.5
-16824.8
-20709.3
-22435.3
-20179.3
-18133.7
-20342.8
-17104.5
-14526.8
-14936.2
-12026.9
-21829.9
-19971.6
-20203
-18885.9
-17643
-16403.1
-17339.9
-18010.4
-16593.5
-14589.3
-15905.2
-14505.2
-12557
-12630.3
-10819.1
-18599.2
-17567
-17371.5
-16481.4
-15230.6
-14057.2
-14986.6
-12942.3
-12222.4
-10496.4
-11119
-11030.2
-9942.45
-9526.43
-8621.67
-13864.4
-14203.5
-13119
-13454.4
-11800.1
-10736.7
-12053.8
-8432.93
-8080.95
-6834.36
-7132.9
-7480
-6799.77
-6352.16
-5822.33
-9302.97
-9436.9
-8896.52
-8912.48
-8155.9
-7414.67
-8139.19
-3063.62
-2959.04
-2486.22
-2576.48
-2778.17
-2586.1
-2339.57
-2167.11
-3494.65
-3564.39
-3302.04
-3242.18
-3065.37
-2817.13
-3056.92
-9757.44
-9568.49
-14858.4
-16013.4
-9090.85
-8048.5
-13031.6
-10595.1
-7044.54
-4811.34
-7035.73
-4906.02
-7026.25
-6820.11
-5131.41
-9658.75
-9160.8
-13332.9
-14507.9
-8491.36
-7641.24
-11616.3
-9923.28
-6985.57
-4036.54
-6891.91
-4338.76
-6306.8
-6142.39
-4851.26
-8709.56
-8279.06
-11335.5
-12152.6
-7735.51
-7120.07
-10124.8
-8874.05
-5682.44
-3957.35
-5663.04
-4294.07
-5244.9
-5295.9
-4624.34
-6875.59
-6586.53
-8499.08
-8945.24
-6208.94
-5739.28
-7824.74
-7059.27
-5059.03
-3278.95
-4980.23
-3583.07
-4627.84
-4635.21
-3841
-4644.96
-4476.01
-5605.84
-5836.4
-4159.74
-3803.53
-5249.27
-4768.95
-3412.28
-2337.82
-3352.86
-2545.93
-3128.46
-3103.89
-2615.06
-1709.19
-1650.34
-2045.54
-2119.17
-1531.32
-1394.96
-1929.44
-1763.22
-1136.84
-842.313
-1188.47
-942.258
-1145.4
-1127.2
-941.58
8910.16
28678.8
7131.81
29969.1
5273.04
30701.9
8156.19
46350.7
9989.85
63457.9
10021.5
46796.8
9761.41
39154.7
10176.1
34445.3
6142.3
3942.64
16537.1
9949.72
5909.97
3203.66
17640.4
8721.42
6920.45
5252.34
21778
15947
5246.96
4026.54
21837.3
16460
12437.6
5324.78
10846.5
4934.93
5187.8
11877.9
41115
10932.2
14761.1
4640.86
51930.3
13781.5
13406.9
4190.26
29987.8
9168.27
15388
5149.56
26624.3
8360.71
9184.8
4554.2
11895.6
4765.58
10058
5402.72
11744.7
4651.14
12292.9
7103.13
10089.8
4541.83
14252.5
5248.64
4811
1716.75
16148.9
11485.7
9630.33
7122.06
16601.8
13655.2
8869.36
7561.88
9692.82
6825.96
14435.5
10123.7
6063.58
4450.59
2710.57
2211.17
5444.21
4623.63
2396.32
2348.35
6181.19
4161.28
2861.87
1822.26
9072.06
5075.05
7110.83
8416.06
12985
9363.75
10767.3
14747.3
5742.13
2817.45
4017.11
4690.72
2626.15
1143.46
1552.63
1655.24
13072.1
23272.8
8688.42
25795.3
15069.6
22579.5
10599.1
26668.1
16672.1
20121.1
13315.8
25492
16627.9
17886.6
14207.7
14163.7
15190.5
17951.4
18600.4
20100.7
21659.4
30641.3
14670.7
12817
12217.3
14013.3
21111
27296.3
24647.9
31413.2
30575.5
24914.5
23275.2
30753.3
29745.2
21408.7
21097
28527.6
28395.2
13348.1
10801.5
14305
13009.8
16624.9
15779.9
18812
18815.5
25655.4
27033.1
12312.2
11233.4
13237.2
13921
14721.1
16903.7
17136.8
20462.4
22262.6
27028
10642.9
8360.13
6975.77
8517.21
12999.2
15051.2
8694.61
13254.8
6451.17
8040.84
10029.2
8344.89
1779.19
5452.51
578.117
1718.54
4227.27
8605.71
1228.16
2714.76
1189.64
4977.28
327.151
1546.37
6666.8
6615.34
7741.3
5049.24
10878.1
8903.03
12921.2
9300.59
1868.43
3544.67
3828.26
2316.57
1822.97
2317
2606.51
1954.09
19955.7
12257.4
3956.54
22381.3
13040.2
4299.42
19111.3
12089.2
4158.81
21853.1
12990.1
4285.84
17494.5
11104.6
3689.84
21101.7
12929.6
4335.32
7704
4646.44
1423.3
10912.4
7314.78
2502.94
13815.2
9469.38
3260.52
16532.5
10853.2
3629.81
20717.8
13129.8
4553.16
8727.19
5392.12
1880.44
10891.1
7946.35
3036.08
13623.1
10012.5
3731.96
16920.1
11924.8
4319.39
21025.1
13420.4
4814.69
255.824
2041.76
2815.13
4133.91
2490.93
2766.27
6144.96
5742.96
562.798
896.42
598.879
928.116
412.524
1253.12
777.145
1653.49
2890.05
1447.04
3811.5
2259.92
1930.27
3266.78
3273.91
188.219
6680.8
1057.43
-2763.54
-361.958
1251.94
467.212
504.392
32.5498
8643.68
3481.65
2304.3
1276.29
8775.12
3583.47
2916.01
1599.8
8717.62
3807.83
4072.96
2477.63
2686.69
1667.27
668.916
692.235
13069.1
11335.1
5934.4
6014.38
15158.3
13955.9
7295.44
7176.85
4800.11
4823.53
10424.8
8378.9
3223.22
3396.74
1355.2
1769.57
4205.32
4133.6
1867.72
2127.68
2468.72
2758.75
942.176
1528.33
3879.5
2267.88
3732.49
2166.88
6377.46
3094.2
5779.97
3107.6
2011.64
1480.52
2198.55
1284.67
708.346
683.629
1215.53
626.521
9845.04
5893.37
4317.13
3818.1
9846.23
6209.71
4310.17
3812.93
10483.2
6851.02
4374.71
3788.2
14357.5
16761.3
12079.5
7333.72
3408.18
15824.8
13372.2
11311.9
8406.29
4356.21
14726.5
12242.7
8964.66
6172.25
3106.01
4147.38
3093.68
3407.32
3257.82
4559.43
3278.42
3557.02
3346.49
5260.86
3741.69
3790.25
3525.53
11859.5
8489.42
9951.05
6786.13
7017.84
5330.28
5751.74
4446.92
3662.85
3680.5
9906.05
8627.99
7941.97
6743.63
6059.62
5194.36
4589.64
4139.93
2814.4
3476.93
7055.76
4804.92
4550.29
2875.13
10028
7686.55
6747.55
5534.84
3329.01
2034.13
4970.67
3552.71
4298.41
2064.12
1267.3
682.156
4940.79
3626.73
1389.98
1171.35
3384.24
1476.31
1076.97
510.818
2307.41
1938.86
1553.79
2090.8
3333.07
2832.16
2012.29
2647.28
2342.73
1345.64
1126.6
1423.6
508.39
198.351
-147.252
112.795
1972.28
832.864
244.061
2036.62
568.856
153.072
2158.3
965.676
295.17
2123.35
621.409
175.143
2353.55
1119.55
308.869
2246.28
688.712
174.538
5542.65
3101.86
862.497
4192.72
2192.06
613.961
3383.46
1706.3
500.381
2750.17
1316.28
335.167
2375.58
727.428
144.517
6547.7
3573.5
1109.07
5007.64
2581.84
775.152
3864.32
1946.4
587.161
3022.59
1368.15
374.961
2594.1
707.21
183.808
1178.2
375.671
94.2674
-12.4765
486.131
159.806
45.7332
3.07478
1230.64
400.291
111.851
3.96099
597.2
205.538
86.6363
34.4944
1288.06
426.588
146.329
35.0354
936.864
344.586
94.806
14.7468
593.631
252.783
31.2896
-25.1539
405.158
209.366
74.1272
27.6574
966.555
349.58
80.89
-34.1048
779.714
274.804
99.6693
-21.3777
1213.2
405.063
126.791
2.12828
1042.23
343.687
125.35
-33.4617
680.558
271.666
72.2523
-13.6473
532.657
205.315
84.8851
4.90201
384.999
180.487
72.1698
30.1386
287.177
132.139
66.0342
27.3302
1461.59
458.181
115.067
-36.1651
1361.27
417.029
151.237
-45.1408
1448.72
456.545
117.909
-35.1205
1318.81
402.587
150.612
-44.9549
1405.86
445.72
144.63
-9.93933
1239.29
376.713
163.105
-27.2738
1207.52
393.479
162.273
39.6135
1350.95
410.328
207.264
-27.4331
1035.75
334.666
148.522
6.56982
1002.13
286.45
123.319
-19.0997
382.014
102.63
34.9698
2.5698
1049.1
302.466
128.151
-16.8669
403.802
109.785
39.4678
5.98408
1098.04
320.817
141.922
-10.2251
426.043
118.406
44.3735
9.39931
1004.52
297.656
150.771
-1.55408
424.934
120.549
53.8746
15.1046
917.584
283.341
146.307
9.93295
387.975
121.203
63.8146
21.4168
574.698
187.54
73.6197
2.50699
327.698
124.034
54.8083
22.2469
709.819
217.688
99.3927
3.80654
358.851
124.549
61.0449
22.9079
412.411
149.747
58.6916
7.37571
251.145
106.037
44.9074
20.7362
228.202
102.605