/*--------------------------------*- C++ -*----------------------------------*\
| =========                 |                                                 |
| \\      /  F ield         | OpenFOAM: The Open Source CFD Toolbox           |
|  \\    /   O peration     | Version:  2306                                  |
|   \\  /    A nd           | Website:  www.openfoam.com                      |
|    \\/     M anipulation  |                                                 |
\*---------------------------------------------------------------------------*/
FoamFile
{
    version     2.0;
    format      ascii;
    arch        "LSB;label=32;scalar=64";
    class       volScalarField;
    location    "0.8";
    object      T;
}
// * * * * * * * * * * * * * * * * * * * * * * * * * * * * * * * * * * * * * //

dimensions      [0 0 0 1 0 0 0];

internalField   nonuniform List<scalar> 
5712
(
531.161
551.064
518.596
542.618
500.905
531.226
471.421
506.768
471.381
499.297
497.905
525.521
514.235
538.339
525.085
546.659
489.878
465.237
514.175
478.771
458.579
433.436
482.322
444.924
540.342
548.818
556.36
561.122
527.732
538.206
548.693
555.498
528.532
509.359
501.023
488.126
522.718
540.828
537.475
537.034
491.162
496.035
510.321
508.999
456.515
460.248
545.401
548.042
514.519
521.935
556.267
559.711
554.274
565.292
564.892
569.857
545.479
561.685
560.584
568.089
528.103
553.942
543.774
561.839
554.835
566.273
559.071
567.817
447.096
432.706
456.724
436.378
413.194
400.797
422.48
404.251
487.92
468.221
478.242
463.918
463.314
438.076
464.832
437.734
428.641
405.906
429.928
405.552
494.477
470.245
496.187
470.166
516.443
550.952
501.006
539.75
506.952
545.191
495.65
534.856
522.834
554.149
503.598
542.262
524.798
555.289
503.886
543.325
543.531
522.684
559.434
544.254
530.532
509.986
553.986
537.048
511.739
493.353
544.715
527.09
427.321
388.982
462.262
492.653
533.544
382.204
419.741
453.4
481.178
518.584
388.841
423.585
456.441
487.583
525.286
485.672
453.122
492.206
461.011
479.328
449.011
490.735
459.584
470.127
442.13
488.864
458.508
369.906
354.262
407.25
388.522
438.322
416.285
463.793
438.555
490.161
462.129
375.357
358.532
410.53
394.433
442.841
424.48
471.901
450.171
498.04
473.887
417.366
409.195
417.145
410.692
381.928
360.901
382.93
362.138
449.953
446.622
450.099
443.91
415.107
410.783
414.973
411.129
382.459
363.024
382.388
363.274
447.645
446.823
447.626
447.397
481.705
478.063
508.471
503.87
480.43
473.405
506.412
498.084
480.868
479.107
509.15
505.988
479.502
478.518
507.966
505.106
418.387
391.924
378.273
422.108
393.657
379.517
416.59
389.718
375.53
421.303
392.01
377.154
410.626
383.799
369.507
420.533
389.29
373.37
336.98
323.74
316.821
366.21
346.552
335.778
389.819
364.881
351.042
407.346
378.856
363.53
422.484
387.919
369.902
339.896
324.054
315.7
373.61
351.32
338.562
398.176
369.688
353.163
416.818
382.41
363.081
429.118
389.774
368.5
385.26
375.346
391.361
381.359
419.64
401.835
431.877
410.447
360.076
337.318
361.231
339.023
361.459
340.069
363.199
341.77
362.503
358.753
361.604
356.28
343.425
346.563
385.481
387.854
416.506
419.185
365.407
369.161
365.144
367.173
349.1
351.466
316.192
299.575
320.827
302.174
318.577
300.049
323.008
302.893
322.43
300.76
328.558
304.48
331.685
306.71
332.613
307.698
356.696
346.661
364.308
350.066
382.647
371.163
390.947
374.7
343.549
329.874
336.757
326.823
368.388
351.759
369.686
351.915
395.808
376.416
397.073
376.295
347.078
331.47
348.329
331.782
324.17
302.256
314.168
298.106
318.442
299.371
311.63
296.52
327.387
304.288
315.542
299.025
328.744
305.469
315.918
299.382
301.626
292.954
294.415
289.328
303.593
295.1
294.745
289.963
307.411
299.881
295.631
291.673
336.957
358.765
321.312
309.924
295.716
353.158
332.147
315.236
304.947
293.149
358.512
336.753
320.043
307.496
294.492
286.923
282.358
285.128
281.418
288.981
283.99
286.053
282.278
293.229
287.46
287.918
283.933
341.794
328.598
322.248
311.189
308.27
299.867
298.957
292.165
290.158
285.917
345.892
330.321
326.004
312.988
311.82
301.789
301.329
293.414
291.598
286.838
330.55
313.805
333.787
316.219
351.811
331.426
354.882
333.38
317.706
304.457
314.956
302.319
336.247
317.626
336.621
317.998
356.753
334.356
356.947
334.663
319.985
305.837
320.364
306.163
304.401
294.68
293.014
287.128
302.982
293.222
292.395
286.572
305.525
295.665
293.372
287.381
306.574
296.131
293.977
287.936
278.306
276.35
275.576
276.367
274.886
274.381
279.723
277.392
276.449
277.046
275.401
274.792
282.539
279.576
278.316
278.187
276.117
275.331
315.431
306.114
301.48
301.232
294.747
291.69
292.34
287.498
285.362
285.862
281.906
280.169
279.168
276.577
275.58
315.459
304.346
299.09
301.495
293.386
289.737
292.834
286.732
284.093
285.954
281.44
279.618
278.954
276.349
275.37
287.139
280.148
276.598
274.793
288.147
280.478
276.684
274.797
287.18
280.172
276.621
274.811
288.448
280.599
276.76
274.845
287.131
280.175
276.706
274.886
288.642
280.693
276.889
274.935
289.422
281.002
276.9
274.894
289.919
281.246
276.963
274.91
287.939
280.516
276.853
274.945
286.684
280.191
276.788
275.006
286.817
280.114
276.765
274.973
286.071
279.944
276.713
275.009
288.775
280.842
276.917
274.937
287.132
280.388
276.853
275.029
289.318
281.084
277
274.979
287.437
280.537
276.926
275.079
285.505
279.635
276.489
274.818
283.67
279.06
276.348
274.855
285.511
279.643
276.512
274.84
283.82
279.113
276.37
274.873
285.597
279.681
276.569
274.893
284.248
279.26
276.431
274.909
285.486
279.674
276.611
274.955
284.594
279.389
276.504
274.96
285.344
279.678
276.642
275.018
282.288
278.649
276.139
274.914
281.54
278.45
276.058
274.908
282.581
278.746
276.181
274.937
281.85
278.555
276.096
274.926
283.128
278.93
276.243
274.968
282.403
278.743
276.158
274.956
283.812
279.169
276.352
275.021
283.061
278.977
276.247
274.998
284.487
279.438
276.482
275.077
283.655
279.221
276.345
275.046
285.36
279.868
276.633
275.139
284.502
279.668
276.549
275.146
284.985
279.676
276.56
275.107
284.123
279.464
276.451
275.097
285.628
280.019
276.676
275.161
284.799
279.84
276.622
275.186
285.853
280.143
276.735
275.197
285.039
279.977
276.688
275.224
273.879
273.437
273.209
273.101
273.058
273.88
273.438
273.21
273.101
273.058
273.888
273.44
273.211
273.101
273.058
273.892
273.442
273.211
273.102
273.059
273.901
273.445
273.212
273.102
273.059
273.905
273.447
273.213
273.102
273.059
273.919
273.453
273.216
273.103
273.06
273.936
273.461
273.219
273.105
273.06
273.916
273.45
273.214
273.103
273.059
273.93
273.454
273.216
273.103
273.059
273.911
273.448
273.213
273.102
273.059
273.923
273.451
273.214
273.103
273.059
273.928
273.456
273.217
273.104
273.06
273.941
273.459
273.218
273.104
273.06
273.945
273.463
273.22
273.105
273.06
273.956
273.465
273.22
273.105
273.06
273.88
273.436
273.209
273.101
273.058
273.881
273.436
273.209
273.101
273.058
273.887
273.439
273.21
273.101
273.058
273.888
273.438
273.209
273.101
273.058
273.9
273.443
273.211
273.102
273.059
273.898
273.442
273.211
273.101
273.058
273.912
273.447
273.213
273.102
273.059
273.91
273.446
273.212
273.102
273.059
273.919
273.449
273.214
273.102
273.059
502.823
497.787
503.198
498.313
504.447
499.853
507.346
502.87
512.903
508.371
522.276
522.523
519.348
518.016
523.558
524.448
523.943
524.735
558.604
569.856
572.272
572.832
572.955
546.365
566.449
571.482
572.655
572.911
558.893
569.933
572.291
572.836
572.956
546.811
566.579
571.509
572.664
572.913
559.27
570.026
572.313
572.841
572.957
547.466
566.747
571.548
572.672
572.915
560.064
570.208
572.354
572.85
572.959
548.606
567.022
571.609
572.685
572.918
561.412
570.492
572.415
572.863
572.962
550.423
567.429
571.695
572.702
572.922
562.77
570.7
572.451
572.869
572.963
554.451
568.269
571.865
572.736
572.929
562.371
570.644
572.443
572.868
572.964
552.885
567.931
571.798
572.723
572.927
562.924
570.721
572.453
572.869
572.963
555.231
568.455
571.903
572.743
572.93
563.043
570.749
572.459
572.87
572.963
555.424
568.518
571.914
572.745
572.931
399.873
441.1
438.977
395.876
378.315
379.932
381.998
385.11
394.726
399.213
428.604
439.526
437.965
449.692
410.688
416.051
396.923
400.805
389.347
391.687
337.372
319.93
282.229
278.933
279.598
278.471
280.708
331.408
322.145
308.488
309.537
303.917
292.191
298.851
294.036
288.138
289.814
286.788
330.578
305.188
291.182
289.319
295.329
292.719
287.646
285.712
283.369
281.837
286.538
285.297
334.144
313.584
320.366
303.257
296.845
306.846
287.591
282.702
289.233
320.703
307.877
297.897
288.657
279.119
310.586
301.938
293.658
285.723
277.576
281.127
279.68
277.926
276.007
274.01
278.261
277.357
276.234
274.982
273.667
278.85
277.843
276.592
275.2
273.74
277.859
277.032
275.997
274.839
273.619
279.814
278.624
277.16
275.544
273.855
316.487
304.191
294.824
286.481
278.359
309.07
298.306
290.301
283.33
276.624
301.717
294.961
288.388
282.21
276.167
300.155
292.08
285.863
280.475
275.509
296.109
289.213
283.843
279.221
275.049
289.312
285.94
282.257
278.541
274.849
294.316
289.476
284.565
279.857
275.29
290.503
286.609
282.566
278.649
274.87
286.057
283.498
280.585
277.564
274.523
287.345
284.409
281.167
277.88
274.623
284.946
282.644
279.989
277.21
274.405
316.704
304.825
295.522
286.988
278.545
299.645
293.774
287.778
281.925
276.074
288.6
285.491
282.009
278.427
274.818
287.101
284.373
281.255
277.993
274.675
291.98
288.095
283.858
279.554
275.213
289.953
286.618
282.866
278.972
275.01
285.747
283.359
280.57
277.6
274.546
284.109
282.058
279.632
277.029
274.352
282.104
280.455
278.472
276.326
274.115
280.79
279.409
277.725
275.882
273.967
284.771
282.544
279.948
277.203
274.407
283.743
281.755
279.404
276.887
274.303
318.973
306.731
297.084
288.121
279.007
306.062
298.681
291.381
284.268
276.987
311.088
301.754
293.474
285.563
277.511
298.466
293.154
287.507
281.815
276.015
293.349
289.255
284.747
280.119
275.407
301.102
294.997
288.715
282.537
276.297
285.695
283.31
280.527
277.57
274.534
281.532
280.003
278.154
276.141
274.055
287.053
284.357
281.259
278.004
274.68
484.176
533.666
476.102
527.547
449.068
505.47
456.626
511.468
462.128
445.421
502.537
468.318
433.928
416.788
471.581
435.85
504.172
521.803
543.84
551.953
496.346
513.354
538.998
547.854
517.668
484.106
490.766
468.091
500.955
531.879
533.688
536.066
486.438
494.754
506.424
507.895
452.216
458.999
541.615
547.143
510.072
520.79
553.429
559.089
540.021
560.705
559.77
568.162
531.673
557.241
556.02
566.502
514.69
549.682
537.014
559.595
552.333
565.399
558.545
567.622
437.787
428.611
450.421
433.669
406.473
398.346
417.498
402.381
481.529
465.525
468.356
459.714
460.052
436.578
463.887
437.271
425.946
404.797
429.136
405.203
491.222
468.773
495.246
469.711
511.725
549.358
499.054
539.028
499.692
542.769
492.638
533.809
520.418
553.3
502.525
541.85
524.096
555.032
503.552
543.194
521.197
498.742
552.538
536.871
510.391
489.195
547.685
530.616
494.966
476.744
539.492
522.142
424.885
394.729
454.308
484.561
530.836
390.458
418.679
445.09
472.078
515.834
392.426
421.688
451.968
483.771
524.092
467.298
445.404
487.712
466.462
462.939
441.987
487.364
465.439
456.35
436.129
486.945
464.638
381.001
368.777
408.42
393.685
432.921
415.68
457.902
438.246
490.161
468.307
381.782
367.561
411.27
399.091
440.781
427.328
470.109
453.477
498.365
478.702
416.361
410.152
416.134
410.614
383.336
364.858
382.916
363.46
448.57
445.987
448.157
443.744
414.444
410.477
414.746
410.995
382.219
363.326
382.282
363.312
446.824
446.288
447.356
447.201
480.601
477.489
507.946
503.653
478.893
473.385
505.893
498.603
480.19
478.612
508.783
505.7
479.264
478.332
507.834
504.991
431.802
425.824
448.581
440.539
428.489
421.578
447.162
437.648
422.179
414.702
445.305
433.516
358.385
351.276
381.77
373.365
402.415
392.838
422.96
412.632
445.949
430.022
354.283
345.859
387.167
376.418
412.126
398.493
432.871
415.798
448.464
427.681
374.674
367.726
386.323
376.909
402.635
389.823
424.389
403.702
355.375
335.983
360.004
338.863
355.246
338.204
360.626
341.157
359.62
353.047
359.007
352.155
341.28
345.377
382.918
387.016
412.984
418.091
363.438
368.411
363.438
366.559
348.096
351.041
321.442
304.854
323.338
305.826
323.144
304.898
324.811
305.892
326.301
305.027
329.553
306.823
331.903
307.97
332.63
308.099
356.805
348.756
362.966
350.641
379.328
371.152
387.77
374.098
343.845
331.263
339.491
330.075
367.332
351.852
369.334
351.925
393.899
375.911
396.489
376.125
346.851
332.024
348.214
331.935
325.984
304.349
315.873
299.635
323.022
302.953
315.06
299.137
328.016
305.363
316.325
299.818
328.888
305.792
316.147
299.627
317.946
313.667
302.761
299.808
319.43
315.273
302.643
299.835
321.881
318.427
302.567
300.226
349.92
369.988
334.151
319.635
301.147
367.502
349.063
333.172
318.465
299.956
366.523
345.894
328.3
313.958
298.499
309.046
304.348
296.399
291.79
310.952
306.237
296.745
292.26
314.178
309.432
297.366
292.979
359.283
349.063
341.953
333.695
327.297
321.257
313.591
308.495
297.185
292.877
356.843
343.172
337.674
326.092
321.839
312.653
308.827
301.243
295.889
291.063
335.288
319.925
335.567
318.78
355.649
337.493
355.987
335.716
319.719
306.828
319.514
307.517
336.855
318.581
336.767
318.233
356.992
335.142
356.979
334.84
320.793
306.787
320.58
306.41
306.246
296.539
294.375
288.357
306.734
297.028
294.85
288.877
306.364
296.469
294.053
287.964
306.82
296.357
294.18
288.1
300.877
299.615
284.675
284.013
303.032
301.451
285.196
284.421
305.857
303.169
285.784
284.071
340.328
334.26
326.621
321.875
315.905
312.329
303.614
299.875
285.26
282.5
331.374
325.302
316.474
311.934
304.942
301.556
294.26
291.461
282.272
280.12
290.109
281.561
277.227
275.069
290.574
281.707
277.252
275.051
289.923
281.487
277.203
275.062
290.507
281.664
277.258
275.068
289.533
281.342
277.234
275.115
290.283
281.557
277.307
275.126
290.426
281.555
277.17
275.019
290.262
281.44
277.059
274.956
289.279
281.224
277.204
275.114
287.692
280.744
277.077
275.158
288.807
281.105
277.236
275.19
287.647
280.763
277.115
275.207
289.55
281.272
277.136
275.046
287.695
280.708
277.026
275.126
289.572
281.228
277.074
275.016
287.618
280.643
276.984
275.112
289.288
281.305
277.209
275.133
288.189
280.985
277.162
275.216
289.084
281.233
277.197
275.137
288.084
280.95
277.147
275.216
288.763
281.121
277.199
275.164
287.964
280.903
277.134
275.219
288.144
280.927
277.175
275.203
287.735
280.827
277.131
275.236
287.532
280.753
277.143
275.253
287.187
280.734
276.999
275.337
286.543
280.604
276.959
275.37
287.184
280.725
277.003
275.343
286.548
280.595
276.957
275.37
287.148
280.7
276.985
275.335
286.518
280.572
276.94
275.364
287.03
280.65
276.993
275.341
286.41
280.527
276.93
275.362
286.788
280.572
277.006
275.351
286.158
280.456
276.914
275.358
286.306
280.4
276.912
275.302
285.54
280.261
276.852
275.323
286.508
280.483
276.958
275.327
285.806
280.36
276.887
275.344
286.143
280.321
276.84
275.262
285.348
280.171
276.797
275.29
286.015
280.24
276.789
275.23
285.207
280.081
276.744
275.258
273.995
273.486
273.23
273.109
273.063
273.99
273.485
273.229
273.109
273.063
273.993
273.485
273.229
273.109
273.062
273.987
273.483
273.229
273.109
273.062
273.993
273.484
273.228
273.109
273.062
273.983
273.481
273.227
273.108
273.062
273.973
273.477
273.226
273.108
273.062
273.957
273.47
273.223
273.106
273.061
273.986
273.481
273.227
273.108
273.062
273.991
273.481
273.227
273.108
273.062
273.995
273.483
273.228
273.109
273.062
273.998
273.483
273.228
273.108
273.062
273.976
273.477
273.225
273.107
273.062
273.982
273.477
273.225
273.107
273.061
273.961
273.47
273.223
273.106
273.061
273.97
273.471
273.223
273.106
273.061
274.003
273.488
273.23
273.11
273.063
274.011
273.489
273.23
273.11
273.063
274.002
273.487
273.23
273.109
273.063
274.01
273.489
273.23
273.11
273.063
274.002
273.486
273.229
273.109
273.062
274.009
273.488
273.23
273.109
273.062
274.003
273.485
273.229
273.109
273.062
274.007
273.486
273.229
273.109
273.062
274.002
273.484
273.228
273.109
273.062
503.768
501.156
504.44
501.795
506.053
503.363
509.035
506.079
514.005
510.688
522.139
522.483
519.507
518.566
523.395
524.293
523.877
524.667
558.976
569.937
572.288
572.834
572.955
547.289
566.633
571.515
572.66
572.912
559.277
570.012
572.306
572.838
572.956
547.739
566.759
571.541
572.669
572.914
559.66
570.101
572.327
572.843
572.957
548.373
566.918
571.578
572.677
572.916
560.406
570.27
572.365
572.851
572.959
549.406
567.168
571.634
572.689
572.918
561.621
570.529
572.421
572.864
572.963
550.993
567.533
571.713
572.705
572.922
562.763
570.701
572.451
572.869
572.963
554.477
568.278
571.866
572.736
572.929
562.429
570.658
572.445
572.868
572.964
553.106
567.979
571.806
572.725
572.927
562.903
570.719
572.453
572.869
572.963
555.198
568.45
571.902
572.743
572.93
563.034
570.747
572.459
572.87
572.963
555.406
568.515
571.913
572.745
572.931
398.733
439.738
434.741
392.579
380.922
389.119
378.631
388.756
411.157
432.768
415.428
434.551
273.475
273.619
273.948
274.536
275.517
277.087
273.59
273.757
274.133
274.791
275.851
277.472
273.394
273.356
273.533
273.501
273.854
273.842
274.443
274.487
275.423
275.556
276.905
277.007
279.521
283.117
288.242
295.179
302.438
307.272
279.843
283.12
287.361
292.281
296.892
299.775
273.427
273.359
273.271
273.168
273.057
273.556
273.467
273.352
273.218
273.074
273.849
273.713
273.535
273.331
273.112
274.374
274.15
273.862
273.532
273.18
275.246
274.874
274.401
273.863
273.291
276.635
276.021
275.25
274.383
273.466
273.53
273.446
273.336
273.208
273.07
273.679
273.57
273.429
273.266
273.09
274.014
273.849
273.637
273.394
273.133
274.6
274.337
274
273.617
273.208
275.54
275.115
274.578
273.971
273.327
276.971
276.294
275.449
274.503
273.506
273.355
273.299
273.225
273.14
273.047
273.32
273.27
273.204
273.127
273.043
273.479
273.403
273.304
273.188
273.064
273.45
273.379
273.286
273.177
273.06
273.766
273.644
273.484
273.3
273.101
273.755
273.634
273.477
273.296
273.1
274.292
274.082
273.812
273.502
273.17
274.332
274.116
273.838
273.518
273.175
275.164
274.808
274.353
273.834
273.282
275.284
274.908
274.428
273.881
273.297
276.477
275.895
275.158
274.327
273.448
276.57
275.973
275.218
274.365
273.46
278.772
277.772
276.536
275.166
273.729
281.896
280.303
278.379
276.282
274.103
286.277
283.799
280.9
277.804
274.614
292.06
288.324
284.126
279.755
275.279
297.872
292.75
287.254
281.666
275.953
301.642
295.578
289.243
282.892
276.395
279.051
277.996
276.699
275.264
273.761
281.901
280.308
278.384
276.286
274.104
285.548
283.235
280.502
277.566
274.534
289.716
286.537
282.873
278.997
275.016
293.55
289.534
285.01
280.291
275.457
295.92
291.37
286.317
281.084
275.73
273.48
273.637
273.985
274.606
275.644
277.306
273.597
273.779
274.175
274.866
275.974
277.661
273.399
273.361
273.55
273.517
273.891
273.879
274.516
274.569
275.564
275.722
277.179
277.358
279.864
283.574
288.767
295.642
302.726
307.365
280.108
283.448
287.712
292.588
297.094
299.844
273.432
273.363
273.274
273.17
273.058
273.572
273.481
273.363
273.225
273.076
273.884
273.742
273.558
273.345
273.117
274.438
274.205
273.904
273.559
273.189
275.362
274.973
274.477
273.911
273.308
276.835
276.193
275.382
274.466
273.494
273.536
273.451
273.339
273.21
273.071
273.699
273.587
273.441
273.273
273.093
274.053
273.882
273.663
273.41
273.139
274.668
274.395
274.045
273.645
273.218
275.652
275.212
274.652
274.018
273.344
277.144
276.444
275.564
274.576
273.531
273.359
273.302
273.228
273.142
273.048
273.325
273.273
273.207
273.128
273.043
273.494
273.416
273.313
273.194
273.066
273.465
273.391
273.295
273.183
273.062
273.799
273.672
273.506
273.313
273.106
273.789
273.664
273.5
273.31
273.105
274.358
274.139
273.856
273.529
273.179
274.406
274.18
273.887
273.549
273.186
275.293
274.918
274.438
273.888
273.3
275.435
275.038
274.527
273.943
273.319
276.727
276.108
275.322
274.431
273.483
276.89
276.246
275.427
274.496
273.505
279.087
278.043
276.746
275.299
273.774
282.319
280.671
278.666
276.465
274.166
286.769
284.235
281.244
278.026
274.691
292.507
288.732
284.457
279.973
275.356
298.163
293.025
287.483
281.821
276.009
301.74
295.673
289.324
282.947
276.415
279.294
278.207
276.862
275.368
273.797
282.204
280.573
278.592
276.418
274.15
285.876
283.525
280.732
277.714
274.585
290.008
286.8
283.084
279.135
275.064
293.747
289.713
285.157
280.388
275.491
295.988
291.433
286.369
281.119
275.742
337.493
320.049
282.898
279.387
280.517
279.07
281.517
336.76
331.957
313.995
321.741
296.348
305.046
291.542
294.232
289.841
333.228
308.287
294.118
291.349
297.79
294.283
288.508
287.006
285.399
283.29
288.944
287.007
334.685
314.008
321.865
304.058
298.015
308.84
288.779
283.811
290.83
320.89
308.078
298.085
288.799
279.178
310.727
302.083
293.789
285.817
277.613
281.742
280.213
278.339
276.269
274.1
278.676
277.714
276.509
275.156
273.726
279.683
278.553
277.135
275.54
273.856
278.404
277.497
276.353
275.062
273.695
280.554
279.259
277.649
275.852
273.96
322.442
309.711
299.339
289.493
279.473
319.15
307.265
297.386
287.883
278.17
307.116
299.84
292.282
284.732
277.05
312.271
302.46
293.923
285.588
277.265
293.185
289.317
284.885
280.212
275.423
300.189
294.647
288.616
282.442
276.18
289.2
286.218
282.69
278.896
274.979
291.471
288.007
283.964
279.657
275.233
287.769
285.093
281.888
278.414
274.818
319.72
307.774
298.023
288.707
279.217
302.673
296.524
289.992
283.373
276.586
291.334
287.878
283.872
279.613
275.226
288.99
286.023
282.544
278.816
274.958
294.31
290.162
285.494
280.608
275.579
291.426
287.922
283.897
279.637
275.24
286.553
284.068
281.129
277.959
274.67
285.305
283.097
280.439
277.543
274.528
283.952
282.035
279.682
277.088
274.375
282.111
280.536
278.588
276.424
274.152
286.987
284.459
281.43
278.141
274.728
285.317
283.117
280.458
277.555
274.532
319.696
307.474
297.754
288.612
279.21
306.525
299.138
291.778
284.546
277.092
312.713
303.328
294.818
286.488
277.854
299.265
293.898
288.123
282.228
276.163
294.473
290.269
285.563
280.653
275.594
303.079
296.822
290.208
283.527
276.651
286.8
284.276
281.284
278.054
274.701
282.55
280.88
278.832
276.57
274.201
288.541
285.66
282.281
278.657
274.905
275.622
280.813
285.898
290.745
295
298.498
458.966
451.842
425.675
432.409
440.582
430.284
414.781
403.132
481.567
500.059
473.75
489.938
462.41
452.36
475.606
445.768
440.087
415.012
420.309
430.737
421.897
406.179
396.471
467.623
479.746
460.877
471.088
450.358
441.291
458.91
427.16
423.162
399.963
403.653
416.198
409.352
393.491
385.725
446.423
457.022
441.195
450.486
433.386
426.095
441.051
407.351
404.59
383.882
386.487
399.346
393.677
379.07
372.82
425.555
436.51
421.552
431.336
415.451
408.65
423.351
392.691
390.605
372.009
374.046
386.326
381.649
368.113
362.753
409.483
421.47
406.236
417.443
401.613
395.839
410.771
382.628
380.885
363.843
365.584
377.305
373.552
360.429
355.719
398.889
413.145
396.053
409.263
392.478
387.628
402.689
372.616
369.492
396.286
401.006
365.22
360.022
388.73
379.726
350.155
330.662
349.429
332.438
346.024
345.653
335.222
367.238
364.385
388.657
392.664
360.478
355.774
382.134
374.044
344.938
326.564
344.352
328.399
341.178
341.235
330.873
358.734
356.33
377.252
380.318
353.026
348.904
372.114
365.481
339.298
321.919
338.658
323.467
335.921
335.91
325.599
348.428
346.491
364.333
366.643
343.588
339.645
360.33
354.524
331.825
316.779
331.307
317.983
328.963
328.764
319.856
340.412
338.776
354.612
356.494
336.309
332.769
351.266
346.246
325.812
313.252
325.381
314.053
323.565
323.248
315.686
334.799
333.357
347.894
349.534
331.339
328.402
344.929
340.524
322.06
310.996
321.717
311.677
320.171
319.989
313.267
531.903
551.695
518.632
542.564
500.918
531.203
471.408
506.746
471.368
499.27
497.927
525.502
514.298
538.312
525.947
547.443
489.874
465.227
514.157
478.757
458.562
433.42
482.301
444.907
540.92
549.226
556.819
561.428
527.728
538.185
548.623
555.441
528.505
509.348
501.006
488.115
522.703
540.798
537.467
537.028
491.151
496.026
510.31
508.99
456.501
460.235
545.391
548.038
514.509
521.928
556.258
559.708
554.561
565.405
565.089
569.929
545.451
561.673
560.548
568.075
528.086
553.934
543.752
561.83
554.827
566.269
559.067
567.816
447.086
432.697
456.712
436.369
413.181
400.786
422.466
404.241
487.909
468.213
478.232
463.909
463.303
438.067
464.821
437.725
428.629
405.896
429.917
405.543
494.468
470.238
496.178
470.158
516.432
550.948
501
539.747
506.941
545.186
495.643
534.853
522.826
554.146
503.592
542.259
524.791
555.286
503.88
543.323
543.908
523.108
559.592
544.471
530.5
509.952
553.97
537.024
511.722
493.335
544.705
527.079
427.312
388.973
462.252
492.642
533.538
382.196
419.732
453.39
481.166
518.577
388.831
423.576
456.432
487.576
525.281
486.069
453.409
492.485
461.218
479.301
449.003
490.723
459.58
470.112
442.122
488.857
458.505
369.899
354.257
407.242
388.516
438.313
416.279
463.783
438.548
490.156
462.126
375.35
358.527
410.522
394.427
442.834
424.474
471.894
450.166
498.036
473.883
417.358
409.188
417.137
410.686
381.92
360.895
382.922
362.132
449.947
446.616
450.092
443.904
415.099
410.777
414.966
411.123
382.451
363.018
382.381
363.269
447.638
446.818
447.62
447.391
481.7
478.058
508.467
503.867
480.424
473.4
506.408
498.08
480.863
479.102
509.147
505.985
479.497
478.514
507.962
505.102
418.601
392.079
378.406
422.278
393.786
379.622
416.594
389.725
375.536
421.306
392.019
377.164
410.624
383.802
369.512
420.533
389.294
373.376
336.977
323.738
316.82
366.207
346.551
335.778
389.816
364.881
351.043
407.343
378.857
363.532
422.483
387.921
369.906
339.893
324.052
315.699
373.606
351.318
338.562
398.172
369.687
353.164
416.815
382.41
363.083
429.116
389.775
368.503
385.207
375.314
391.308
381.328
419.604
401.811
431.84
410.424
359.968
337.328
361.084
339.008
361.374
340.015
363.118
341.723
362.455
358.703
361.571
356.245
343.382
346.523
385.457
387.836
416.487
419.17
365.376
369.141
365.119
367.155
349.072
351.448
316.213
299.571
320.838
302.165
318.554
300.042
322.99
302.887
322.406
300.752
328.533
304.471
331.664
306.701
332.599
307.691
356.676
346.647
364.289
350.054
382.63
371.15
390.93
374.688
343.529
329.863
336.737
326.811
368.372
351.748
369.672
351.906
395.793
376.405
397.061
376.286
347.062
331.461
348.316
331.773
324.155
302.249
314.158
298.101
318.427
299.364
311.62
296.515
327.374
304.28
315.534
299.02
328.733
305.462
315.911
299.377
301.588
292.903
294.404
289.312
303.588
295.099
294.74
289.96
307.401
299.875
295.626
291.669
336.945
358.754
321.3
309.914
295.71
353.149
332.137
315.227
304.939
293.145
358.501
336.741
320.032
307.488
294.487
286.88
282.32
285.118
281.41
288.982
283.992
286.051
282.276
293.227
287.459
287.915
283.931
341.787
328.593
322.241
311.184
308.264
299.863
298.952
292.163
290.154
285.914
345.884
330.315
325.996
312.983
311.813
301.785
301.323
293.41
291.594
286.835
330.541
313.799
333.778
316.214
351.802
331.42
354.874
333.374
317.699
304.452
314.949
302.314
336.239
317.62
336.614
317.993
356.745
334.351
356.94
334.658
319.978
305.833
320.358
306.159
304.395
294.676
293.01
287.126
302.976
293.218
292.391
286.57
305.52
295.662
293.368
287.379
306.569
296.128
293.973
287.933
278.276
276.322
275.548
276.367
274.881
274.374
279.726
277.394
276.451
277.045
275.402
274.793
282.539
279.576
278.317
278.186
276.117
275.331
315.428
306.112
301.479
301.229
294.745
291.689
292.338
287.497
285.361
285.861
281.905
280.169
279.167
276.577
275.58
315.456
304.344
299.089
301.492
293.384
289.736
292.831
286.731
284.092
285.952
281.439
279.617
278.952
276.349
275.37
287.136
280.146
276.596
274.791
288.138
280.474
276.682
274.795
287.178
280.171
276.62
274.811
288.446
280.598
276.76
274.845
287.128
280.173
276.705
274.886
288.639
280.692
276.888
274.934
289.419
281
276.899
274.894
289.916
281.244
276.963
274.91
287.936
280.514
276.852
274.945
286.681
280.19
276.788
275.005
286.814
280.113
276.764
274.972
286.068
279.943
276.712
275.009
288.771
280.841
276.916
274.937
287.13
280.386
276.852
275.029
289.315
281.082
276.999
274.978
287.434
280.536
276.925
275.078
285.503
279.634
276.488
274.817
283.665
279.058
276.347
274.855
285.508
279.642
276.511
274.84
283.818
279.113
276.369
274.873
285.595
279.68
276.569
274.893
284.245
279.259
276.43
274.909
285.483
279.673
276.61
274.955
284.591
279.387
276.503
274.959
285.342
279.676
276.641
275.018
282.284
278.647
276.139
274.914
281.533
278.447
276.057
274.907
282.579
278.745
276.18
274.937
281.85
278.554
276.096
274.926
283.126
278.929
276.243
274.968
282.401
278.743
276.158
274.956
283.81
279.168
276.351
275.021
283.059
278.976
276.246
274.998
284.485
279.436
276.481
275.077
283.653
279.219
276.344
275.046
285.357
279.866
276.632
275.138
284.499
279.666
276.548
275.146
284.982
279.674
276.559
275.106
284.121
279.462
276.45
275.097
285.626
280.017
276.676
275.161
284.796
279.838
276.621
275.185
285.851
280.141
276.735
275.196
285.037
279.975
276.687
275.224
273.878
273.437
273.209
273.101
273.058
273.879
273.437
273.21
273.101
273.058
273.888
273.44
273.211
273.101
273.058
273.892
273.442
273.211
273.102
273.059
273.901
273.445
273.212
273.102
273.059
273.905
273.447
273.213
273.102
273.059
273.919
273.453
273.216
273.103
273.06
273.936
273.461
273.219
273.105
273.06
273.916
273.45
273.214
273.103
273.059
273.929
273.454
273.216
273.103
273.059
273.911
273.448
273.213
273.102
273.059
273.923
273.451
273.214
273.103
273.059
273.928
273.456
273.217
273.104
273.06
273.941
273.459
273.218
273.104
273.06
273.945
273.463
273.22
273.105
273.06
273.956
273.465
273.22
273.105
273.06
273.879
273.436
273.209
273.101
273.058
273.881
273.436
273.209
273.101
273.058
273.887
273.439
273.21
273.101
273.058
273.887
273.438
273.209
273.101
273.058
273.899
273.443
273.211
273.102
273.059
273.898
273.442
273.211
273.101
273.058
273.912
273.447
273.213
273.102
273.059
273.91
273.446
273.212
273.102
273.059
273.919
273.449
273.214
273.102
273.059
502.887
497.869
503.214
498.326
504.451
499.856
507.346
502.87
512.901
508.37
522.274
522.52
519.345
518.014
523.556
524.446
523.941
524.733
558.694
569.88
572.278
572.833
572.955
546.413
566.464
571.486
572.656
572.912
558.887
569.932
572.291
572.836
572.956
546.817
566.581
571.509
572.664
572.913
559.269
570.026
572.313
572.841
572.957
547.468
566.748
571.548
572.672
572.915
560.064