/*--------------------------------*- C++ -*----------------------------------*\
| =========                 |                                                 |
| \\      /  F ield         | OpenFOAM: The Open Source CFD Toolbox           |
|  \\    /   O peration     | Version:  2306                                  |
|   \\  /    A nd           | Website:  www.openfoam.com                      |
|    \\/     M anipulation  |                                                 |
\*---------------------------------------------------------------------------*/
FoamFile
{
    version     2.0;
    format      ascii;
    arch        "LSB;label=32;scalar=64";
    class       volVectorField;
    location    "1.8";
    object      flux;
}
// * * * * * * * * * * * * * * * * * * * * * * * * * * * * * * * * * * * * * //

dimensions      [0 1 -1 1 0 0 0];

internalField   nonuniform List<vector> 
2658
(
(1.00222e-06 9.81775e-07 -8.6749e-06)
(1.46602e-06 5.68993e-07 -8.35798e-06)
(4.74088e-07 1.76964e-07 -6.08664e-06)
(-3.39057e-08 -1.96039e-08 -5.52548e-06)
(-2.02057e-06 -1.98703e-06 -6.89983e-06)
(-1.70749e-06 2.43857e-06 -7.06375e-06)
(1.75245e-06 -2.04478e-06 -6.29918e-06)
(1.7307e-06 1.72244e-06 -6.07979e-06)
(-3.09125e-08 -2.57369e-08 -5.52081e-06)
(2.42087e-06 -1.72881e-06 -7.04283e-06)
(-1.65271e-06 5.32365e-07 -7.09746e-06)
(-1.20854e-06 -4.01958e-06 -5.68639e-06)
(8.12046e-07 2.45739e-06 -7.64934e-06)
(9.63825e-07 2.49879e-06 -7.1689e-06)
(7.36333e-07 2.02533e-06 -7.39634e-06)
(-6.39075e-08 2.07902e-06 -7.60386e-06)
(-3.3108e-08 2.27687e-06 -7.32804e-06)
(-1.25333e-08 2.04691e-06 -7.58659e-06)
(-8.08744e-07 2.07306e-06 -7.38787e-06)
(-1.04876e-06 2.46769e-06 -7.07437e-06)
(-9.99462e-07 2.37923e-06 -7.52272e-06)
(-2.32301e-06 2.07644e-06 -6.77616e-06)
(-2.77342e-06 6.87602e-07 -7.74008e-06)
(2.07834e-06 -4.63946e-07 -5.88482e-06)
(-8.76248e-07 7.61991e-07 -9.22914e-06)
(-1.09808e-06 2.27474e-06 -7.50948e-06)
(-2.36334e-06 -4.94778e-07 -6.7229e-06)
(-3.37121e-07 1.36941e-07 -7.90225e-06)
(-1.73057e-06 1.85553e-06 -8.08169e-06)
(-1.86431e-06 -9.39158e-11 -6.66605e-06)
(-1.73055e-06 -1.85555e-06 -8.08162e-06)
(-2.36339e-06 4.94788e-07 -6.72291e-06)
(-1.09815e-06 -2.27487e-06 -7.50941e-06)
(-2.77358e-06 -6.87587e-07 -7.74e-06)
(-8.76198e-07 -7.61964e-07 -9.22914e-06)
(2.07832e-06 4.64004e-07 -5.88473e-06)
(-1.1083e-06 -1.28621e-07 -7.52089e-06)
(5.2461e-07 1.95034e-07 -1.06087e-05)
(-2.32262e-06 -2.07707e-06 -6.77607e-06)
(-9.99744e-07 -2.37938e-06 -7.52291e-06)
(-1.04874e-06 -2.46787e-06 -7.07446e-06)
(-8.08699e-07 -2.07315e-06 -7.38788e-06)
(-1.26884e-08 -2.04676e-06 -7.58651e-06)
(7.14722e-08 1.02095e-06 -1.09382e-05)
(-1.3728e-06 -1.47219e-07 -6.87661e-06)
(1.28266e-06 -6.74531e-08 -6.80014e-06)
(-1.65268e-06 -5.32396e-07 -7.09749e-06)
(-6.31169e-08 1.06287e-06 -1.09294e-05)
(-6.41402e-08 -2.07939e-06 -7.60397e-06)
(7.36354e-07 -2.02536e-06 -7.39639e-06)
(9.63876e-07 -2.49862e-06 -7.16883e-06)
(8.12025e-07 -2.45739e-06 -7.64941e-06)
(2.2021e-06 -2.1823e-06 -6.84874e-06)
(-4.66455e-07 4.50783e-07 -1.09978e-05)
(2.47042e-06 -8.141e-07 -7.65612e-06)
(2.0332e-06 -7.61821e-07 -7.40675e-06)
(-1.08028e-06 5.34192e-08 -1.09301e-05)
(8.91895e-08 -1.30207e-06 -6.83168e-06)
(-3.81105e-06 -1.3449e-11 -5.93368e-06)
(2.05337e-06 -1.8206e-08 -7.59444e-06)
(-1.08022e-06 -5.33877e-08 -1.09303e-05)
(2.03325e-06 7.61787e-07 -7.40684e-06)
(2.47041e-06 8.1415e-07 -7.65619e-06)
(-4.66381e-07 -4.50843e-07 -1.09978e-05)
(5.06433e-07 5.13602e-07 -7.03625e-06)
(-4.02818e-06 -1.17185e-06 -5.69776e-06)
(4.98618e-07 -1.63954e-06 -7.07883e-06)
(-4.45166e-08 -7.52503e-08 -6.3373e-06)
(-1.27964e-06 -2.70103e-06 -6.98641e-06)
(-1.27979e-06 2.70105e-06 -6.98626e-06)
(-4.96818e-08 2.53028e-11 -5.60819e-06)
(1.25932e-06 2.25518e-06 -6.17766e-06)
(-8.92199e-08 -2.5829e-08 -4.74435e-06)
(-1.34343e-06 1.82941e-06 -5.40248e-06)
(3.31853e-08 -3.5966e-09 -4.11018e-06)
(-1.41596e-06 -1.38733e-06 -5.34438e-06)
(1.81222e-06 -1.37423e-06 -5.38722e-06)
(-1.03943e-08 4.19867e-08 -4.10459e-06)
(-1.53227e-06 1.30688e-06 -4.634e-06)
(1.7102e-06 8.57434e-07 -4.54313e-06)
(-2.08351e-06 -9.20612e-07 -5.38732e-06)
(-4.21442e-08 -7.27817e-08 -4.74232e-06)
(2.2627e-06 1.20223e-06 -6.14617e-06)
(-2.05418e-06 1.8086e-06 -6.31933e-06)
(-5.19595e-08 -3.76206e-08 -5.2025e-06)
(-3.03853e-08 -2.06299e-08 -3.85193e-06)
(-3.56937e-09 2.43286e-09 -2.74247e-06)
(6.74727e-09 1.06073e-08 -1.86577e-06)
(8.82844e-09 1.17587e-08 -1.21398e-06)
(7.89558e-09 1.06477e-08 -7.6076e-07)
(5.72188e-09 8.05147e-09 -4.71885e-07)
(-1.10896e-08 -2.02018e-08 -4.10532e-07)
(9.94625e-09 1.04884e-08 -3.39983e-07)
(-6.98905e-08 5.37213e-08 -2.83092e-07)
(4.65549e-08 -2.29362e-08 -3.00899e-07)
(-8.74236e-09 -5.79808e-08 -3.2894e-07)
(-5.76872e-08 -9.30596e-09 -2.95205e-07)
(2.78999e-10 -5.87165e-08 -4.44578e-07)
(5.796e-08 -1.0136e-08 -2.95389e-07)
(-4.73887e-08 -2.18186e-08 -2.99425e-07)
(2.5508e-08 -6.42394e-08 -4.46946e-07)
(6.55276e-08 -1.68431e-08 -3.03199e-07)
(5.86063e-08 -5.79912e-08 -3.31125e-07)
(4.62832e-08 -2.98936e-08 -3.64272e-07)
(4.82327e-08 -2.51247e-08 -3.08389e-07)
(-9.95186e-08 5.82831e-08 -3.38819e-07)
(-1.87055e-08 -2.08079e-08 -2.43571e-07)
(-1.33721e-08 -9.51913e-10 -4.22436e-07)
(-5.31747e-09 7.98853e-09 -2.63993e-07)
(2.69891e-08 -6.04917e-08 -3.94233e-07)
(5.79322e-08 2.00924e-08 -3.65166e-07)
(2.28682e-08 -2.72423e-08 -2.98794e-07)
(4.58677e-08 -9.69166e-13 -4.09047e-07)
(2.28648e-08 2.72425e-08 -2.98783e-07)
(5.79327e-08 -2.00965e-08 -3.65167e-07)
(2.69875e-08 6.04903e-08 -3.94235e-07)
(4.82365e-08 2.51261e-08 -3.08398e-07)
(-9.9518e-08 -5.82853e-08 -3.3882e-07)
(5.86116e-08 5.79893e-08 -3.31127e-07)
(4.62893e-08 2.98928e-08 -3.64276e-07)
(6.55267e-08 1.68364e-08 -3.03192e-07)
(2.55024e-08 6.42386e-08 -4.46923e-07)
(-4.73916e-08 2.18177e-08 -2.99422e-07)
(5.79611e-08 1.01353e-08 -2.95388e-07)
(-9.31699e-08 -4.60148e-08 -2.95107e-07)
(9.32648e-08 -4.45199e-08 -2.9652e-07)
(-6.98891e-08 -5.37244e-08 -2.83082e-07)
(-8.74171e-09 5.79862e-08 -3.28952e-07)
(-5.76877e-08 9.30968e-09 -2.95206e-07)
(4.65522e-08 2.29403e-08 -3.00908e-07)
(-2.60586e-08 6.30702e-08 -4.45862e-07)
(-6.40229e-08 1.57627e-08 -2.9996e-07)
(-4.3366e-08 3.00347e-08 -3.5936e-07)
(-3.94057e-08 2.76853e-08 -2.97834e-07)
(-2.54431e-08 5.64755e-08 -3.90146e-07)
(2.73054e-09 -2.58385e-08 -2.78695e-07)
(-1.20878e-08 2.15605e-09 -2.7091e-07)
(-7.25096e-08 3.20002e-09 -3.2485e-07)
(5.73352e-08 -5.9992e-08 -2.79024e-07)
(5.73053e-08 6.00063e-08 -2.79034e-07)
(-1.20838e-08 -2.1613e-09 -2.70901e-07)
(2.71662e-09 2.58411e-08 -2.78695e-07)
(2.62642e-08 -1.51827e-08 -3.06609e-07)
(-2.79293e-08 -1.57784e-08 -3.23652e-07)
(-3.21012e-08 -1.44523e-10 -4.06454e-07)
(-2.7864e-08 1.57273e-08 -3.23501e-07)
(1.49692e-08 2.83705e-11 -3.79429e-07)
(1.90465e-08 3.30408e-11 -3.69912e-07)
(-5.63373e-08 -3.14997e-08 -2.60694e-07)
(-5.86175e-08 3.10456e-08 -2.6199e-07)
(-4.88736e-08 7.11399e-11 -2.4714e-07)
(-6.19409e-08 2.50319e-09 -3.51487e-07)
(-6.06956e-08 1.67809e-08 -3.4749e-07)
(-6.2769e-08 -1.89396e-08 -2.20143e-07)
(-4.92204e-08 7.51736e-08 -2.98472e-07)
(-8.68337e-08 1.72877e-08 -2.82847e-07)
(-7.85872e-08 7.05868e-08 -2.5664e-07)
(-3.33262e-08 8.37121e-08 -2.81551e-07)
(-3.83999e-08 8.88537e-08 -2.64017e-07)
(-2.80702e-08 7.00632e-08 -2.76109e-07)
(3.8033e-10 7.05484e-08 -2.846e-07)
(6.6604e-12 8.13892e-08 -2.70175e-07)
(-6.88322e-10 7.05446e-08 -2.84777e-07)
(2.67747e-08 7.12045e-08 -2.75988e-07)
(3.808e-08 9.07844e-08 -2.62563e-07)
(3.37696e-08 8.44978e-08 -2.80089e-07)
(7.9807e-08 7.36885e-08 -2.55963e-07)
(1.00324e-07 2.36323e-08 -2.93704e-07)
(-2.32479e-08 -4.24748e-09 -4.44941e-07)
(6.96501e-08 1.74503e-08 -3.91883e-07)
(-1.82578e-07 -1.17986e-07 -5.42456e-07)
(2.24378e-07 1.65416e-07 -7.095e-07)
(-2.817e-07 -1.95601e-07 -9.07808e-07)
(3.64058e-07 2.61446e-07 -1.15261e-06)
(-4.51206e-07 -3.2428e-07 -1.46495e-06)
(5.76803e-07 4.08293e-07 -1.83232e-06)
(-7.03081e-07 -5.15446e-07 -2.2791e-06)
(8.78249e-07 6.13967e-07 -2.79483e-06)
(-1.0511e-06 -7.81641e-07 -3.39229e-06)
(1.28279e-06 8.81659e-07 -4.0739e-06)
(-1.50225e-06 -1.13461e-06 -4.82236e-06)
(1.80639e-06 1.20795e-06 -5.66296e-06)
(-2.05259e-06 -1.59016e-06 -6.55308e-06)
(2.51407e-06 1.58191e-06 -7.3147e-06)
(-2.51265e-06 1.54928e-06 -7.08026e-06)
(2.66941e-06 1.29903e-06 -6.949e-06)
(-2.75859e-06 1.23407e-06 -7.0167e-06)
(2.42081e-06 1.72889e-06 -7.04274e-06)
(-2.02067e-06 1.98697e-06 -6.89975e-06)
(-3.39141e-08 1.95827e-08 -5.5254e-06)
(-1.70739e-06 -2.43863e-06 -7.06383e-06)
(4.98528e-07 1.63955e-06 -7.07873e-06)
(-4.0281e-06 1.17175e-06 -5.69776e-06)
(5.06444e-07 -5.13619e-07 -7.03626e-06)
(-1.20856e-06 4.01952e-06 -5.6864e-06)
(4.83215e-07 -4.94726e-07 -9.25968e-06)
(-5.19669e-08 3.75886e-08 -5.20249e-06)
(-3.03875e-08 2.06097e-08 -3.85191e-06)
(-3.58857e-09 -2.44076e-09 -2.74246e-06)
(6.7302e-09 -1.0626e-08 -1.86576e-06)
(8.83623e-09 -1.1775e-08 -1.21397e-06)
(7.90217e-09 -1.06455e-08 -7.60747e-07)
(5.72376e-09 -8.05066e-09 -4.71877e-07)
(-1.10905e-08 2.02022e-08 -4.10535e-07)
(9.94806e-09 -1.04837e-08 -3.39985e-07)
(6.53459e-10 4.26516e-10 -2.33193e-07)
(-2.53428e-08 -2.47211e-08 -2.53059e-07)
(-2.09515e-09 9.56141e-09 -4.1071e-07)
(3.50972e-08 -3.17464e-08 -2.59978e-07)
(3.5096e-08 3.17455e-08 -2.59978e-07)
(-2.5345e-08 2.47237e-08 -2.53062e-07)
(6.56125e-10 -4.28952e-10 -2.33192e-07)
(-2.08708e-09 -9.56462e-09 -4.10712e-07)
(1.11499e-08 -9.3472e-09 -2.41195e-07)
(9.32665e-08 4.45242e-08 -2.96516e-07)
(-9.31754e-08 4.60135e-08 -2.95107e-07)
(6.51261e-09 -5.86355e-08 -3.28259e-07)
(7.17332e-08 5.23595e-08 -2.8507e-07)
(-6.56017e-09 1.24066e-08 -3.40625e-07)
(1.97415e-09 -1.25219e-09 -2.34778e-07)
(-1.04643e-08 -8.45667e-09 -2.4057e-07)
(4.72786e-11 8.00038e-09 -3.47618e-07)
(9.15003e-10 -6.42674e-09 -4.10387e-07)
(9.62875e-09 -6.31881e-09 -4.09752e-07)
(6.73603e-09 -2.85783e-13 -4.19526e-07)
(9.62856e-09 6.31708e-09 -4.09749e-07)
(-6.57101e-09 -1.24186e-08 -3.40623e-07)
(-1.87022e-08 2.08066e-08 -2.43567e-07)
(-4.59957e-08 -4.03799e-08 -2.63355e-07)
(-1.33688e-08 9.55664e-10 -4.22437e-07)
(1.01454e-08 -4.45118e-08 -2.79568e-07)
(1.01464e-08 4.45173e-08 -2.79568e-07)
(-4.59977e-08 4.03821e-08 -2.63353e-07)
(-1.85568e-09 3.83211e-13 -3.57792e-07)
(2.88802e-08 -2.8093e-08 -2.56274e-07)
(-3.44148e-08 -3.08671e-08 -2.58451e-07)
(-3.44196e-08 3.08706e-08 -2.58447e-07)
(6.11941e-10 -9.15457e-09 -4.10213e-07)
(2.88851e-08 2.80955e-08 -2.56273e-07)
(-5.91324e-10 -4.21245e-09 -3.31953e-07)
(-6.07949e-09 -1.61689e-13 -3.10989e-07)
(-8.01157e-09 -2.17836e-08 -3.05104e-07)
(-7.4363e-09 -9.79919e-09 -2.82832e-07)
(3.33398e-08 2.86233e-08 -3.2153e-07)
(-7.56517e-09 -7.4255e-09 -3.06576e-07)
(-2.35186e-09 2.65438e-12 -3.19396e-07)
(-5.52827e-08 1.89787e-12 -4.46508e-07)
(5.75617e-09 -8.05852e-13 -3.7874e-07)
(-2.36052e-08 -4.47275e-08 -2.7758e-07)
(3.71353e-08 3.10755e-08 -3.87098e-07)
(3.78807e-08 8.46655e-08 -2.82005e-07)
(8.31932e-08 -2.09167e-08 -2.43341e-07)
(5.8986e-08 6.71964e-08 -2.97829e-07)
(-1.60732e-07 -9.26391e-08 -3.25734e-07)
(1.1236e-07 1.17868e-07 -4.97953e-07)
(-1.96143e-07 -1.35235e-07 -5.74305e-07)
(-1.96133e-07 1.35228e-07 -5.74303e-07)
(-4.77379e-09 1.84086e-08 -4.21027e-07)
(-2.12836e-07 1.69165e-07 -7.48143e-07)
(4.73867e-09 1.19136e-08 -5.30942e-07)
(2.54354e-07 -2.24861e-07 -9.49399e-07)
(-3.33145e-07 2.78356e-07 -1.21536e-06)
(3.77343e-09 7.05591e-09 -8.58253e-07)
(4.12478e-07 -3.58024e-07 -1.52703e-06)
(-5.25152e-07 4.46622e-07 -1.92285e-06)
(5.00732e-10 7.09013e-10 -1.34836e-06)
(6.43774e-07 -5.53181e-07 -2.37597e-06)
(-7.98616e-07 6.86055e-07 -2.92227e-06)
(-6.407e-09 -1.14137e-08 -2.03108e-06)
(9.61578e-07 -8.18822e-07 -3.53974e-06)
(-1.15841e-06 1.00652e-06 -4.24507e-06)
(-1.99791e-08 -4.07588e-08 -2.92438e-06)
(1.38108e-06 -1.15638e-06 -5.03859e-06)
(-1.5926e-06 1.41408e-06 -5.89053e-06)
(-3.91439e-08 -1.17279e-07 -4.02097e-06)
(1.95908e-06 -1.55678e-06 -6.81195e-06)
(-2.02824e-06 1.9026e-06 -7.92068e-06)
(-1.12022e-07 -3.33527e-07 -5.46841e-06)
(3.13403e-06 -2.12457e-06 -8.43558e-06)
(5.117e-07 -9.92654e-07 -5.83286e-06)
(3.67967e-06 -2.22263e-06 -7.47912e-06)
(3.67965e-06 2.22266e-06 -7.47908e-06)
(-3.37062e-07 -1.36868e-07 -7.90213e-06)
(8.22182e-07 -6.17873e-07 -7.94499e-06)
(-2.96109e-07 1.15959e-06 -7.1206e-06)
(1.17695e-06 1.0341e-06 -6.60108e-06)
(6.09639e-08 -1.09574e-11 -9.50146e-06)
(-7.45375e-07 -7.31787e-07 -6.31278e-06)
(-7.45376e-07 7.31793e-07 -6.31283e-06)
(8.12518e-07 7.65212e-07 -6.36286e-06)
(-4.02831e-08 -6.68545e-12 -9.51461e-06)
(-9.57537e-07 -9.21673e-07 -6.44549e-06)
(-9.57523e-07 9.21673e-07 -6.44551e-06)
(2.56134e-07 3.73693e-07 -6.12131e-06)
(-3.08587e-07 -4.93276e-12 -9.38449e-06)
(-1.35799e-06 -2.41002e-06 -7.79634e-06)
(-1.358e-06 2.40999e-06 -7.79631e-06)
(4.60903e-07 -1.51412e-06 -8.99487e-06)
(1.93077e-06 1.5146e-11 -1.27413e-05)
(4.60916e-07 1.51408e-06 -8.9949e-06)
(7.36603e-07 -1.18193e-06 -9.13987e-06)
(2.10997e-06 7.50276e-07 -1.25947e-05)
(8.90649e-07 1.72896e-06 -9.109e-06)
(1.21124e-06 1.20754e-06 -1.05881e-05)
(1.56137e-06 1.55757e-06 -9.17775e-06)
(-2.34858e-06 -2.32917e-06 -8.96803e-06)
(-1.36605e-06 1.64631e-06 -7.42071e-06)
(1.33383e-06 2.16294e-07 -8.65832e-06)
(8.79764e-07 1.39248e-07 -1.00923e-05)
(-3.43961e-09 2.04208e-08 -9.40507e-06)
(2.56144e-07 -3.73704e-07 -6.12131e-06)
(-1.54222e-07 -1.3626e-07 -5.8456e-06)
(-3.98377e-07 -3.89416e-07 -9.26248e-06)
(1.63742e-06 -1.3338e-06 -7.45213e-06)
(-1.20081e-06 7.32927e-07 -9.14312e-06)
(7.4448e-07 2.08184e-06 -1.2595e-05)
(1.7293e-06 8.88213e-07 -9.11484e-06)
(9.88571e-07 9.90295e-07 -1.01118e-05)
(-5.25531e-07 -5.12421e-07 -9.21573e-06)
(-7.06166e-07 1.15759e-11 -9.31323e-06)
(-5.25505e-07 5.12449e-07 -9.21568e-06)
(-3.98397e-07 3.89417e-07 -9.26248e-06)
(-1.36602e-06 -1.64632e-06 -7.42069e-06)
(-2.34855e-06 2.32912e-06 -8.96807e-06)
(8.90666e-07 -1.72912e-06 -9.10875e-06)
(2.11004e-06 -7.50383e-07 -1.25948e-05)
(7.36656e-07 1.1819e-06 -9.13979e-06)
(1.33383e-06 -2.16338e-07 -8.65843e-06)
(8.7978e-07 -1.39258e-07 -1.00924e-05)
(9.887e-07 -9.90196e-07 -1.01118e-05)
(1.72916e-06 -8.88279e-07 -9.11522e-06)
(7.4436e-07 -2.0818e-06 -1.25949e-05)
(-1.20082e-06 -7.32964e-07 -9.14324e-06)
(1.63737e-06 1.33378e-06 -7.4521e-06)
(2.0187e-07 -1.34267e-06 -8.65022e-06)
(1.49132e-06 -5.04602e-07 -9.05442e-06)
(-3.76318e-08 -1.92656e-06 -1.27508e-05)
(-1.5563e-06 -4.45776e-07 -9.00697e-06)
(2.39811e-06 1.25648e-06 -7.82104e-06)
(-3.77882e-08 3.01069e-07 -9.39789e-06)
(-4.26784e-07 -2.88989e-07 -6.1182e-06)
(-2.4686e-06 1.36547e-06 -7.80432e-06)
(-4.41005e-08 -2.76177e-07 -8.86488e-06)
(-2.88961e-07 -3.36121e-07 -8.96736e-06)
(1.76752e-08 -5.38295e-10 -5.51556e-06)
(1.44895e-08 -1.9346e-08 -4.09863e-06)
(7.0719e-09 -3.16993e-08 -2.92413e-06)
(4.01907e-09 -3.10287e-08 -1.99199e-06)
(2.34337e-09 -2.56602e-08 -1.29746e-06)
(9.55505e-10 -1.97059e-08 -8.13528e-07)
(4.0148e-11 -1.41195e-08 -5.04675e-07)
(-4.67012e-09 -1.52512e-08 -4.95202e-07)
(1.85168e-07 -1.10786e-07 -5.29089e-07)
(-2.00459e-07 -9.42381e-08 -5.22792e-07)
(2.01645e-07 -8.47667e-08 -5.2423e-07)
(-1.82339e-07 -1.29954e-07 -5.27396e-07)
(2.16737e-07 1.87463e-07 -6.74917e-07)
(-2.91304e-07 -2.21112e-07 -8.67698e-07)
(3.5948e-07 2.99451e-07 -1.095e-06)
(-4.67108e-07 -3.67348e-07 -1.40081e-06)
(5.75156e-07 4.68079e-07 -1.74253e-06)
(-7.24522e-07 -5.86041e-07 -2.1815e-06)
(8.82058e-07 7.03116e-07 -2.66026e-06)
(-1.07785e-06 -8.94551e-07 -3.25217e-06)
(1.29427e-06 1.0076e-06 -3.87943e-06)
(-1.53216e-06 -1.30689e-06 -4.63402e-06)
(1.81212e-06 1.37431e-06 -5.38711e-06)
(-2.05412e-06 -1.80864e-06 -6.31939e-06)
(-3.08896e-08 2.5672e-08 -5.52072e-06)
(1.73071e-06 -1.72238e-06 -6.0798e-06)
(1.75223e-06 2.04492e-06 -6.2991e-06)
(1.25956e-06 -2.25523e-06 -6.1778e-06)
(-9.75072e-07 2.04339e-06 -5.37915e-06)
(3.34901e-08 -8.30275e-12 -4.19428e-06)
(-9.74881e-07 -2.04337e-06 -5.3792e-06)
(9.10894e-07 1.69678e-06 -4.56097e-06)
(1.25937e-06 -1.52614e-06 -4.62434e-06)
(1.24907e-06 1.23854e-06 -4.49142e-06)
(-1.00919e-06 -9.88299e-07 -3.80906e-06)
(-9.80333e-07 1.30653e-06 -3.8885e-06)
(4.02311e-08 1.11586e-08 -2.91491e-06)
(8.6105e-07 8.51571e-07 -3.16545e-06)
(7.7569e-09 4.68435e-08 -2.91023e-06)
(1.29441e-06 -1.0075e-06 -3.87953e-06)
(-2.22694e-08 -5.40265e-08 -3.46536e-06)
(-1.48486e-06 -6.67603e-07 -3.86762e-06)
(1.44586e-06 -7.63386e-07 -3.85199e-06)
(-3.50896e-09 4.74291e-08 -2.97103e-06)
(-1.20472e-06 6.71387e-07 -3.21909e-06)
(1.11328e-06 7.33544e-07 -3.21645e-06)
(-1.358e-06 -8.53573e-07 -3.87238e-06)
(-2.76348e-09 -5.94272e-08 -3.46754e-06)
(-1.71073e-06 9.77771e-07 -4.57687e-06)
(-6.94331e-09 3.6176e-08 -4.18003e-06)
(2.02007e-06 -1.03292e-06 -5.34603e-06)
(-2.27815e-06 1.33662e-06 -6.21344e-06)
(-1.249e-08 -4.66919e-08 -5.59411e-06)
(-2.7586e-06 -1.23405e-06 -7.01669e-06)
(-9.04507e-08 -2.3393e-08 -6.34339e-06)
(1.28266e-06 6.74594e-08 -6.80018e-06)
(-6.31213e-08 -1.06289e-06 -1.09295e-05)
(2.01913e-07 1.34264e-06 -8.65025e-06)
(-2.46863e-06 -1.36552e-06 -7.80425e-06)
(-4.26764e-07 2.88963e-07 -6.11818e-06)
(7.48217e-08 9.65373e-08 -8.9853e-06)
(-3.45551e-08 -1.53416e-08 -6.70259e-06)
(-2.68481e-08 -1.11399e-11 -5.80185e-06)
(-2.29353e-08 1.51309e-08 -5.44383e-06)
(-1.39484e-08 -5.99639e-09 -4.05595e-06)
(-6.97179e-09 -2.07679e-08 -2.8933e-06)
(-3.19716e-09 -2.29358e-08 -1.97038e-06)
(-1.37941e-09 -1.99129e-08 -1.28278e-06)
(-5.7128e-10 -1.56925e-08 -8.04114e-07)
(-1.53222e-10 -1.11755e-08 -4.98926e-07)
(9.16641e-10 6.42624e-09 -4.10387e-07)
(4.94745e-11 -8.00055e-09 -3.47615e-07)
(-1.04577e-08 8.45499e-09 -2.4057e-07)
(6.09296e-10 9.14894e-09 -4.10209e-07)
(1.97306e-09 1.25436e-09 -2.34774e-07)
(7.17322e-08 -5.23632e-08 -2.85071e-07)
(6.50803e-09 5.86367e-08 -3.2826e-07)
(-2.82413e-09 -3.76344e-08 -4.7353e-07)
(-9.14764e-08 3.22741e-08 -3.74222e-07)
(8.16297e-08 1.93119e-08 -3.72573e-07)
(-8.21649e-08 1.62984e-08 -3.70768e-07)
(8.7982e-08 3.9302e-08 -3.77365e-07)
(-3.78053e-08 2.82489e-08 -3.51338e-07)
(1.60238e-07 -8.12604e-09 -2.65731e-07)
(-4.77595e-08 -9.97605e-08 -3.98895e-07)
(1.23575e-07 1.78598e-07 -5.2871e-07)
(1.16491e-08 -8.77615e-10 -4.93462e-07)
(-1.78385e-07 -2.2025e-07 -6.88127e-07)
(-1.78944e-07 1.77071e-07 -6.46774e-07)
(1.49992e-07 -1.36846e-07 -5.1346e-07)
(6.02135e-09 -1.50055e-08 -4.8723e-07)
(1.17015e-12 -2.90967e-09 -5.24364e-07)
(-1.60609e-08 4.35126e-08 -3.82409e-07)
(3.73181e-10 4.40439e-08 -3.84134e-07)
(1.81643e-08 4.37517e-08 -3.82014e-07)
(3.69062e-08 2.7712e-08 -3.6883e-07)
(4.83284e-08 3.18762e-08 -3.64894e-07)
(-4.78538e-09 -1.24212e-09 -5.32788e-07)
(4.00718e-09 1.09069e-08 -5.32572e-07)
(2.15296e-08 1.66521e-08 -4.20412e-07)
(-2.31277e-10 -2.70635e-09 -5.26051e-07)
(-8.87717e-09 -2.6942e-08 -8.53111e-07)
(-9.29952e-09 -4.85819e-09 -8.67185e-07)
(-1.44822e-08 -9.88599e-09 -8.56755e-07)
(-2.46914e-08 -1.89862e-08 -1.36546e-06)
(-2.25286e-08 -2.0076e-08 -1.39531e-06)
(8.67002e-09 8.6666e-09 -1.10868e-06)
(9.27861e-09 9.94226e-09 -6.79828e-07)
(4.485e-09 1.27439e-08 -6.60063e-07)
(-2.26666e-07 1.62395e-07 -6.68496e-07)
(2.44165e-07 1.4288e-07 -6.71674e-07)
(-3.23424e-07 -1.6253e-07 -8.59838e-07)
(3.25238e-07 -1.41762e-07 -8.59601e-07)
(-2.60554e-09 1.36221e-08 -6.24421e-07)
(-2.48383e-07 1.2922e-07 -6.68674e-07)
(-2.63178e-10 -1.68328e-08 -4.99425e-07)
(4.08827e-11 5.99699e-11 -5.26954e-07)
(2.67929e-10 -2.53213e-08 -8.53234e-07)
(6.12929e-10 -5.35665e-08 -1.37708e-06)
(-1.52977e-08 -5.40487e-08 -1.37547e-06)
(-2.34885e-08 -9.08947e-08 -2.12783e-06)
(-4.16979e-08 -4.05998e-08 -2.15703e-06)
(-3.91983e-08 -3.14309e-08 -2.09778e-06)
(-5.91601e-08 -4.84674e-08 -3.08468e-06)
(-7.19196e-08 -7.44211e-08 -3.18741e-06)
(1.8975e-09 6.12062e-10 -2.63918e-06)
(7.19322e-09 6.31668e-09 -1.74835e-06)
(8.14539e-09 1.51911e-08 -1.70113e-06)
(-6.04487e-07 3.93422e-07 -1.73437e-06)
(6.45856e-07 3.57711e-07 -1.73183e-06)
(-8.08963e-07 -4.39173e-07 -2.16165e-06)
(8.13103e-07 -3.79805e-07 -2.15421e-06)
(-7.93617e-09 3.03316e-08 -1.59568e-06)
(-6.59857e-07 3.12356e-07 -1.73153e-06)
(5.23422e-07 -2.36707e-07 -1.3855e-06)
(-4.91835e-09 2.12343e-08 -1.01392e-06)
(-4.12666e-07 2.02399e-07 -1.08667e-06)
(-5.4173e-10 -2.26003e-08 -8.12094e-07)
(4.04631e-07 2.29469e-07 -1.08884e-06)
(-5.20507e-07 -2.73659e-07 -1.38855e-06)
(1.52396e-09 2.24247e-08 -1.01626e-06)
(-3.77549e-07 2.5359e-07 -1.08807e-06)
(3.00465e-07 -1.85279e-07 -8.65941e-07)
(1.42496e-09 1.45417e-08 -6.25802e-07)
(4.39361e-10 2.60172e-09 -6.98557e-07)
(-7.91702e-09 -7.85829e-09 -6.69529e-07)
(-2.12809e-07 -1.6914e-07 -7.48142e-07)
(6.93988e-09 1.98588e-09 -4.11778e-07)
(1.53579e-07 1.41669e-07 -5.99156e-07)
(6.49728e-09 -1.86217e-08 -3.42559e-07)
(-1.65228e-07 -1.10334e-07 -4.53359e-07)
(-8.25726e-08 -2.31401e-08 -2.5826e-07)
(3.26741e-08 -1.01618e-08 -3.44865e-07)
(-8.95166e-09 -2.9105e-09 -4.11748e-07)
(-2.05181e-10 4.13946e-09 -4.25156e-07)
(-1.20292e-09 1.24737e-08 -4.0111e-07)
(3.0076e-09 1.98015e-08 -4.13643e-07)
(-3.97037e-09 1.9084e-08 -4.13341e-07)
(2.81195e-09 -3.86424e-08 -4.71886e-07)
(-2.05605e-08 1.71895e-08 -4.3073e-07)
(-2.95139e-08 2.76314e-08 -3.67834e-07)
(-1.73972e-08 1.68694e-08 -3.72553e-07)
(1.24974e-08 1.90175e-10 -5.35091e-07)
(-9.10689e-09 6.91521e-09 -5.2209e-07)
(-1.1459e-08 1.09473e-08 -6.89613e-07)
(-5.92981e-09 1.19847e-08 -6.59009e-07)
(9.90149e-09 -2.71167e-08 -8.49107e-07)
(1.82483e-08 -5.48016e-08 -1.36983e-06)
(2.9069e-08 -9.30783e-08 -2.12218e-06)
(8.99e-10 -9.24725e-08 -2.13321e-06)
(9.47088e-10 -1.52685e-07 -3.15362e-06)
(-3.50511e-08 -1.46178e-07 -3.14198e-06)
(-5.57593e-08 -2.41466e-07 -4.43341e-06)
(-1.26261e-07 -1.43994e-07 -4.50765e-06)
(-8.66589e-08 -7.32098e-08 -4.3366e-06)
(-1.60074e-07 -1.44397e-07 -5.81393e-06)
(-2.83117e-07 -3.37056e-07 -6.14562e-06)
(-5.4139e-08 -4.65872e-08 -5.24804e-06)
(-1.25375e-08 -1.34269e-08 -3.80799e-06)
(8.34133e-09 8.35184e-09 -3.72642e-06)
(-1.35797e-06 8.53583e-07 -3.87228e-06)
(1.44578e-06 7.63476e-07 -3.8519e-06)
(-1.71077e-06 -9.77729e-07 -4.57687e-06)
(1.71022e-06 -8.57296e-07 -4.54308e-06)
(-2.23282e-08 5.40335e-08 -3.46539e-06)
(-1.48477e-06 6.67633e-07 -3.86758e-06)
(1.20883e-06 -5.82789e-07 -3.20338e-06)
(-1.28473e-08 4.0994e-08 -2.40616e-06)
(-1.01133e-06 4.66081e-07 -2.64673e-06)
(-1.77784e-09 -4.02679e-08 -2.01454e-06)
(9.87783e-07 5.35183e-07 -2.64263e-06)
(-1.20473e-06 -6.71343e-07 -3.21907e-06)
(-7.64914e-11 4.43066e-08 -2.40922e-06)
(-9.26673e-07 5.91168e-07 -2.6507e-06)
(7.50023e-07 -4.8224e-07 -2.16472e-06)
(1.13913e-09 3.22846e-08 -1.5987e-06)
(5.56252e-10 5.61569e-09 -1.77076e-06)
(7.20384e-10 3.97204e-09 -1.12965e-06)
(-1.06094e-08 -1.19104e-08 -1.07976e-06)
(-3.33133e-07 -2.78323e-07 -1.21534e-06)
(3.7832e-09 1.33348e-09 -6.72333e-07)
(2.54359e-07 2.24861e-07 -9.49375e-07)
(4.75087e-09 -1.19158e-08 -5.3094e-07)
(1.85146e-08 -4.51371e-09 -5.4067e-07)
(-2.96695e-07 -2.24265e-07 -9.26832e-07)
(3.51988e-07 3.00254e-07 -1.18007e-06)
(-4.69355e-07 -3.64252e-07 -1.48573e-06)
(-4.69351e-07 3.64264e-07 -1.4857e-06)
(-1.16638e-09 8.58692e-09 -1.07462e-06)
(5.66035e-07 -4.72671e-07 -1.8609e-06)
(7.17398e-09 6.44078e-09 -1.37121e-06)
(-7.2529e-07 5.69941e-07 -2.30501e-06)
(-1.1329e-09 4.16848e-09 -1.6511e-06)
(8.66554e-07 -7.15271e-07 -2.82584e-06)
(-2.2725e-10 8.46243e-09 -2.06312e-06)
(-1.0714e-06 8.51882e-07 -3.42594e-06)
(-2.32143e-10 -7.97777e-09 -2.42889e-06)
(1.26734e-06 -1.03239e-06 -4.10297e-06)
(-2.2879e-08 8.12888e-09 -2.96415e-06)
(-1.49117e-06 1.21468e-06 -4.86813e-06)
(8.74197e-09 -4.71568e-08 -3.41539e-06)
(1.7852e-06 -1.41375e-06 -5.67779e-06)
(-1.03899e-07 -4.72325e-09 -4.06057e-06)
(-1.90709e-06 1.65281e-06 -6.62993e-06)
(5.91821e-08 -1.89986e-07 -4.58558e-06)
(2.49557e-06 -1.7872e-06 -7.36361e-06)
(-4.22428e-07 -1.48496e-07 -5.35041e-06)
(-1.99255e-06 2.04923e-06 -8.79285e-06)
(-2.68291e-07 -3.8947e-11 -7.11641e-06)
(-1.9925e-06 -2.04923e-06 -8.79285e-06)
(5.11692e-07 9.92493e-07 -5.83286e-06)
(3.13406e-06 2.12469e-06 -8.43544e-06)
(-1.11992e-07 3.33387e-07 -5.46837e-06)
(-2.02813e-06 -1.90252e-06 -7.92069e-06)
(-8.35565e-08 -2.09377e-08 -4.58118e-06)
(1.95899e-06 1.55673e-06 -6.81185e-06)
(-3.91288e-08 1.17196e-07 -4.02093e-06)
(-1.59259e-06 -1.41401e-06 -5.8905e-06)
(-4.22643e-08 -6.04465e-09 -3.43403e-06)
(1.38114e-06 1.15652e-06 -5.03854e-06)
(-1.99434e-08 4.06763e-08 -2.92439e-06)
(-1.15823e-06 -1.00641e-06 -4.24509e-06)
(-1.88716e-08 -2.74026e-09 -2.4433e-06)
(9.61626e-07 8.18923e-07 -3.53972e-06)
(-6.37192e-09 1.13156e-08 -2.03105e-06)
(-7.9858e-07 -6.86025e-07 -2.92228e-06)
(-7.25484e-09 -7.68291e-10 -1.65921e-06)
(6.43773e-07 5.53217e-07 -2.3759e-06)
(5.35469e-10 -7.50279e-10 -1.34835e-06)
(-5.25132e-07 -4.4659e-07 -1.92286e-06)
(-6.60151e-10 5.09052e-10 -1.07706e-06)
(4.12481e-07 3.58048e-07 -1.52698e-06)
(3.80188e-09 -7.04858e-09 -8.58241e-07)
(1.19618e-08 -4.85899e-09 -8.73429e-07)
(-1.92582e-08 -1.90106e-08 -1.11319e-06)
(-1.6308e-08 -1.22155e-08 -7.00011e-07)
(-1.25633e-08 -4.60385e-09 -4.52011e-07)
(4.68623e-08 2.27487e-08 -3.47246e-07)
(3.39276e-09 -1.1854e-11 -3.28692e-07)
(-2.45298e-08 -8.13201e-13 -3.81122e-07)
(-3.79277e-08 -2.68504e-11 -5.53513e-07)
(-4.99433e-08 2.65984e-12 -8.6558e-07)
(-6.67068e-08 2.4717e-11 -1.36182e-06)
(-8.84825e-08 4.70791e-11 -2.08027e-06)
(-1.05914e-07 9.73394e-11 -3.04747e-06)
(-8.85459e-08 3.46172e-10 -4.26594e-06)
(1.52182e-08 1.11665e-10 -5.68704e-06)
(1.57739e-07 -3.46224e-11 -7.0012e-06)
(-1.64779e-07 -1.16103e-10 -8.02501e-06)
(-1.32084e-06 6.24282e-07 -7.90722e-06)
(-1.32085e-06 -6.24372e-07 -7.90721e-06)
(-1.36183e-06 -8.69465e-07 -7.34313e-06)
(-1.12683e-06 -8.4029e-07 -8.56548e-06)
(-3.96915e-07 -2.38309e-07 -6.84528e-06)
(-1.49554e-07 -4.55328e-07 -6.02419e-06)
(-6.12645e-07 -1.41303e-06 -8.30409e-06)
(9.87463e-07 4.12845e-06 -5.80537e-06)
(1.58587e-06 -3.59751e-07 -6.92972e-06)
(3.04926e-08 3.83117e-08 -6.3462e-06)
(8.47439e-09 -1.28463e-08 -6.50822e-06)
(9.18772e-08 -2.95636e-08 -6.32134e-06)
(-4.22371e-07 1.48503e-07 -5.35039e-06)
(2.49543e-06 1.7873e-06 -7.36351e-06)
(5.92419e-08 1.89876e-07 -4.58552e-06)
(-1.90708e-06 -1.65275e-06 -6.62993e-06)
(-1.78416e-07 -1.39517e-11 -5.38105e-06)
(-6.39968e-08 -1.40044e-11 -5.54053e-06)
(-6.18311e-08 -1.59961e-11 -4.11247e-06)
(8.83421e-09 4.71353e-08 -3.41532e-06)
(-1.49115e-06 -1.21467e-06 -4.86816e-06)
(1.78515e-06 1.41378e-06 -5.67765e-06)
(-1.03898e-07 4.71791e-09 -4.06063e-06)
(-3.79762e-09 -2.30626e-08 -4.97948e-06)
(-1.83892e-08 -2.42544e-08 -3.63933e-06)
(-2.29189e-08 -8.15564e-09 -2.96414e-06)
(1.26717e-06 1.03241e-06 -4.10287e-06)
(-1.81614e-10 7.95181e-09 -2.42887e-06)
(-1.07132e-06 -8.51897e-07 -3.42601e-06)
(-3.1707e-08 1.34624e-11 -2.83529e-06)
(-5.23874e-08 -1.59552e-12 -2.93245e-06)
(-4.0913e-08 -5.93114e-12 -1.99869e-06)
(-2.92312e-08 -8.23491e-12 -1.30391e-06)
(-1.1378e-09 -8.62579e-09 -1.07461e-06)
(5.66026e-07 4.72683e-07 -1.86083e-06)
(-7.25289e-07 -5.69935e-07 -2.30507e-06)
(8.66522e-07 7.15317e-07 -2.82577e-06)
(-2.23817e-10 -8.44149e-09 -2.06307e-06)
(-1.82407e-08 -2.13161e-08 -2.53763e-06)
(-1.44883e-08 -1.66402e-08 -1.69052e-06)
(1.77601e-09 -7.726e-12 -1.37121e-06)
(1.13885e-09 -4.40597e-12 -8.60812e-07)
(2.2803e-10 1.01499e-12 -5.37382e-07)
(-1.0223e-08 -8.8324e-13 -5.14111e-07)
(-4.77141e-09 -1.84158e-08 -4.2103e-07)
(2.08595e-07 1.87397e-07 -7.39311e-07)
(1.20668e-08 -2.05979e-12 -4.99772e-07)
(2.08611e-07 -1.87402e-07 -7.39313e-07)
(1.84999e-08 4.51924e-09 -5.40669e-07)
(-2.9668e-07 2.24275e-07 -9.26827e-07)
(-1.925e-09 1.18145e-08 -6.75143e-07)
(3.52026e-07 -3.00263e-07 -1.18012e-06)
(1.19768e-08 4.85439e-09 -8.73436e-07)
(-1.06102e-08 1.19024e-08 -1.07977e-06)
(-1.86671e-08 2.52409e-12 -8.20689e-07)
(-1.919e-09 -1.18396e-08 -6.75125e-07)
(3.88912e-09 5.99991e-12 -7.91839e-07)
(-7.91411e-09 7.85547e-09 -6.69527e-07)
(-8.94929e-09 2.91003e-09 -4.1175e-07)
(-1.65235e-07 1.10338e-07 -4.53359e-07)
(6.49783e-09 1.86092e-08 -3.42564e-07)
(1.53577e-07 -1.41667e-07 -5.9917e-07)
(3.26694e-08 1.01636e-08 -3.44874e-07)
(1.12355e-07 -1.17866e-07 -4.97955e-07)
(-2.36048e-08 4.47324e-08 -2.77575e-07)
(-1.60737e-07 9.26394e-08 -3.25732e-07)
(1.41956e-08 3.94257e-12 -3.53405e-07)
(5.89872e-08 -6.71932e-08 -2.97835e-07)
(8.31944e-08 2.09229e-08 -2.43341e-07)
(3.78752e-08 -8.46707e-08 -2.82002e-07)
(1.00327e-07 -2.36338e-08 -2.93703e-07)
(3.71377e-08 -3.10734e-08 -3.87106e-07)
(1.34523e-08 -3.25509e-09 -3.03265e-07)
(-3.11526e-08 -1.88745e-08 -2.85137e-07)
(1.7669e-08 -9.98579e-09 -3.35249e-07)
(-7.56629e-09 7.42455e-09 -3.06572e-07)
(-8.00832e-09 2.17814e-08 -3.05096e-07)
(3.33388e-08 -2.86278e-08 -3.21533e-07)
(-7.44043e-09 9.80209e-09 -2.82805e-07)
(5.06968e-09 -2.9668e-08 -3.29906e-07)
(2.02231e-10 2.1806e-08 -3.08479e-07)
(2.47163e-10 -7.50495e-13 -3.16686e-07)
(2.00402e-10 -2.18064e-08 -3.08476e-07)
(3.66041e-11 -1.0896e-08 -2.83135e-07)
(2.7763e-10 5.87144e-08 -4.4457e-07)
(5.07121e-09 2.96682e-08 -3.29912e-07)
(-5.88315e-10 4.21565e-09 -3.31957e-07)
(1.76695e-08 9.98886e-09 -3.35251e-07)
(-5.32222e-09 -7.98779e-09 -2.63993e-07)
(-3.11548e-08 1.88766e-08 -2.85135e-07)
(1.3453e-08 3.25405e-09 -3.03263e-07)
(1.07492e-10 4.32554e-09 -3.32299e-07)
(9.85966e-09 -2.08807e-08 -3.03625e-07)
(8.41969e-09 -9.04319e-09 -2.82028e-07)
(-5.43492e-09 2.9611e-08 -3.3071e-07)
(-3.28001e-08 2.76667e-08 -3.21356e-07)
(9.83206e-09 -6.26265e-09 -3.05872e-07)
(-1.75888e-08 7.28114e-09 -3.27565e-07)
(3.28385e-08 4.09168e-08 -2.51001e-07)
(1.00123e-07 -5.74338e-08 -3.36101e-07)
(-5.93245e-08 5.58428e-08 -3.35418e-07)
(1.95496e-08 -6.77484e-09 -4.53429e-07)
(8.92319e-09 2.91352e-13 -3.09362e-07)
(5.06876e-09 3.60463e-12 -3.55078e-07)
(4.88309e-09 2.25706e-12 -4.11635e-07)
(4.83483e-10 -6.43002e-13 -4.16155e-07)
(-2.08662e-10 6.1013e-13 -3.61832e-07)
(-2.51341e-10 -1.92446e-12 -5.36646e-07)
(-7.4919e-10 -6.07837e-13 -8.59722e-07)
(-1.60175e-09 3.00268e-12 -1.3701e-06)
(-3.55287e-09 -4.05573e-12 -2.10283e-06)
(2.22732e-09 -3.2584e-12 -2.10408e-06)
(3.21785e-09 1.4004e-11 -3.08758e-06)
(7.56564e-09 1.20199e-11 -4.32587e-06)
(2.02504e-08 -8.22497e-12 -5.81268e-06)
(-1.45221e-07 -1.37578e-11 -8.64538e-06)
(-3.9769e-07 9.39654e-13 -7.96459e-06)
(1.59752e-06 -5.21469e-11 -1.1988e-05)
(-2.96103e-07 -1.15965e-06 -7.12057e-06)
(8.22196e-07 6.17903e-07 -7.94514e-06)