/*--------------------------------*- C++ -*----------------------------------*\
| =========                 |                                                 |
| \\      /  F ield         | OpenFOAM: The Open Source CFD Toolbox           |
|  \\    /   O peration     | Version:  2306                                  |
|   \\  /    A nd           | Website:  www.openfoam.com                      |
|    \\/     M anipulation  |                                                 |
\*---------------------------------------------------------------------------*/
FoamFile
{
    version     2.0;
    format      ascii;
    arch        "LSB;label=32;scalar=64";
    class       volScalarField;
    location    "1.8";
    object      gradTx;
}
// * * * * * * * * * * * * * * * * * * * * * * * * * * * * * * * * * * * * * //

dimensions      [0 -1 0 1 0 0 0];

internalField   nonuniform List<scalar> 
2658
(
0.00856599
0.0125301
0.00405203
-0.000289792
-0.0172698
-0.0145939
0.0149782
0.0147923
-0.000264209
0.0206912
-0.0141257
-0.0103294
0.00694057
0.00823782
0.00629344
-0.000546218
-0.000282974
-0.000107122
-0.00691234
-0.00896379
-0.00854241
-0.0198548
-0.0237045
0.0177636
-0.0074893
-0.00938534
-0.0201995
-0.00288138
-0.0147912
-0.0159343
-0.014791
-0.0201999
-0.00938589
-0.0237058
-0.00748887
0.0177634
-0.00947261
0.00448385
-0.0198514
-0.00854482
-0.00896361
-0.00691195
-0.000108448
0.000610874
-0.0117334
0.0109629
-0.0141254
-0.000539461
-0.000548207
0.00629362
0.00823825
0.00694039
0.0188214
-0.0039868
0.0211147
0.0173778
-0.00923315
0.000762303
-0.0325731
0.0175502
-0.00923262
0.0173782
0.0211146
-0.00398616
0.00432849
-0.0344288
0.00426169
-0.000380483
-0.0109371
-0.0109384
-0.000424631
0.0107634
-0.000762564
-0.0114823
0.000283635
-0.0121023
0.0154891
-8.88398e-05
-0.0130963
0.0146171
-0.0178077
-0.000360207
0.0193393
-0.0175571
-0.000444098
-0.000259703
-3.05074e-05
5.7669e-05
7.54567e-05
6.74836e-05
4.8905e-05
-9.47827e-05
8.50107e-05
-0.000597355
0.000397905
-7.4721e-05
-0.000493053
2.38461e-06
0.000495384
-0.000405032
0.000218017
0.000560065
0.000500909
0.000395583
0.000412245
-0.000850587
-0.000159876
-0.000114292
-4.54485e-05
0.000230676
0.000495147
0.000195455
0.000392031
0.000195426
0.000495151
0.000230663
0.000412278
-0.000850581
0.000500954
0.000395635
0.000560057
0.000217969
-0.000405057
0.000495394
-0.000796324
0.000797135
-0.000597343
-7.47154e-05
-0.000493057
0.000397882
-0.000222723
-0.000547204
-0.00037065
-0.000336801
-0.000217462
2.3338e-05
-0.000103314
-0.00061974
0.000490045
0.000489789
-0.00010328
2.32189e-05
0.00022448
-0.000238712
-0.000274369
-0.000238154
0.000127942
0.000162791
-0.000481515
-0.000501004
-0.000417723
-0.00052941
-0.000518766
-0.000536487
-0.000420687
-0.000742169
-0.000671686
-0.00028484
-0.000328204
-0.000239916
3.25068e-06
5.69265e-08
-5.88309e-06
0.000228844
0.00032547
0.000288629
0.000682112
0.000857472
-0.0001987
0.0005953
-0.00156049
0.00191776
-0.00240769
0.0031116
-0.00385646
0.00492994
-0.00600924
0.0075064
-0.00898373
0.010964
-0.0128398
0.0154392
-0.0175435
0.0214877
-0.0214756
0.0228154
-0.0235777
0.0206907
-0.0172707
-0.000289864
-0.014593
0.00426093
-0.0344282
0.00432858
-0.0103295
0.00413005
-0.000444161
-0.000259722
-3.06715e-05
5.75231e-05
7.55233e-05
6.75399e-05
4.8921e-05
-9.4791e-05
8.50262e-05
5.58512e-06
-0.000216605
-1.79073e-05
0.000299976
0.000299966
-0.000216624
5.60791e-06
-1.78383e-05
9.52987e-05
0.00079715
-0.000796371
5.56633e-05
0.000613104
-5.60698e-05
1.68731e-05
-8.94383e-05
4.04091e-07
7.82054e-06
8.2297e-05
5.75729e-05
8.22954e-05
-5.61625e-05
-0.000159847
-0.000393126
-0.000114263
8.67124e-05
8.67212e-05
-0.000393143
-1.58605e-05
0.000246839
-0.000294144
-0.000294185
5.23026e-06
0.000246881
-5.05405e-06
-5.19614e-05
-6.8475e-05
-6.35581e-05
0.000284955
-6.46596e-05
-2.01013e-05
-0.000472502
4.9198e-05
-0.000201754
0.000317396
0.000323767
0.000711053
0.000504154
-0.00137378
0.000960341
-0.00167644
-0.00167635
-4.08016e-05
-0.00181911
4.05015e-05
0.00217397
-0.0028474
3.22516e-05
0.00352545
-0.00448848
4.27976e-06
0.00550235
-0.00682578
-5.47607e-05
0.00821861
-0.00990095
-0.000170761
0.0118041
-0.013612
-0.000334563
0.0167443
-0.0173354
-0.00095745
0.0267866
0.0043735
0.0314501
0.03145
-0.00288087
0.0070272
-0.00253084
0.0100594
0.000521059
-0.00637073
-0.00637073
0.0069446
-0.0003443
-0.00818407
-0.00818396
0.00218918
-0.0026375
-0.0116067
-0.0116068
0.00393934
0.0165023
0.00393945
0.00629576
0.018034
0.00761239
0.0103525
0.013345
-0.0200733
-0.0116756
0.0114002
0.00751935
-2.93984e-05
0.00218927
-0.00131814
-0.00340493
0.0139951
-0.0102633
0.00636308
0.0147804
0.00844932
-0.00449172
-0.00603561
-0.00449149
-0.0034051
-0.0116753
-0.020073
0.00761253
0.0180346
0.0062962
0.0114003
0.00751949
0.00845043
0.0147792
0.00636205
-0.0102635
0.0139946
0.00172538
0.0127463
-0.000321639
-0.0133017
0.0204967
-0.000322976
-0.00364773
-0.0210991
-0.000376927
-0.00246975
0.00015107
0.000123842
6.04436e-05
3.4351e-05
2.00288e-05
8.16671e-06
3.43146e-07
-3.99155e-05
0.00158264
-0.00171332
0.00172346
-0.00155845
0.00185246
-0.00248978
0.00307248
-0.00399237
0.00491586
-0.00619249
0.00753895
-0.00921242
0.0110622
-0.0130954
0.0154882
-0.0175566
-0.000264014
0.0147924
0.0149763
0.0107654
-0.00833395
0.00028624
-0.00833232
0.00778542
0.0107638
0.0106758
-0.00862552
-0.00837891
0.000343856
0.0073594
6.62983e-05
0.0110634
-0.000190336
-0.0126911
0.0123577
-2.99911e-05
-0.0102967
0.00951525
-0.0116068
-2.36195e-05
-0.0146216
-5.93445e-05
0.0172656
-0.0194713
-0.000106752
-0.0235778
-0.000773083
0.0109629
-0.000539499
0.00172575
-0.0210994
-0.00364756
0.000639501
-0.000295342
-0.000229471
-0.000196028
-0.000119217
-5.9588e-05
-2.73261e-05
-1.17898e-05
-4.88274e-06
-1.30959e-06
7.83454e-06
4.22859e-07
-8.93822e-05
5.20766e-06
1.68638e-05
0.000613096
5.56242e-05
-2.41378e-05
-0.00078185
0.00069769
-0.000702264
0.000751983
-0.000323123
0.00136955
-0.000408201
0.0010562
9.95651e-05
-0.00152466
-0.00152944
0.00128198
5.14645e-05
1.00013e-08
-0.000137273
3.18958e-06
0.00015525
0.000315437
0.000413063
-4.09007e-05
3.42494e-05
0.000184014
-1.97672e-06
-7.58733e-05
-7.94831e-05
-0.000123779
-0.000211038
-0.000192552
7.41028e-05
7.93044e-05
3.83333e-05
-0.00193732
0.00208688
-0.0027643
0.00277981
-2.22696e-05
-0.00212293
-2.24938e-06
3.49425e-07
2.28999e-06
5.23871e-06
-0.00013075
-0.000200756
-0.000356392
-0.000335028
-0.000505641
-0.000614697
1.62179e-05
6.14805e-05
6.96187e-05
-0.00516656
0.00552013
-0.00691421
0.0069496
-6.78305e-05
-0.0056398
0.0044737
-4.20372e-05
-0.00352706
-4.63017e-06
0.00345839
-0.00444878
1.30253e-05
-0.00322692
0.00256808
1.21792e-05
3.75523e-06
-6.76668e-05
-0.00181888
5.93152e-05
0.00131264
5.55323e-05
-0.0014122
-0.000705749
0.000279266
-7.65099e-05
-1.75368e-06
-1.02814e-05
2.5706e-05
-3.39348e-05
2.40338e-05
-0.000175731
-0.000252255
-0.000148694
0.000106815
-7.78367e-05
-9.79405e-05
-5.06822e-05
8.46282e-05
0.000155968
0.000248453
7.68376e-06
8.09477e-06
-0.000299582
-0.000476575
-0.00107916
-0.000740675
-0.00136815
-0.0024198
-0.000462726
-0.000107158
7.12934e-05
-0.0116066
0.0123571
-0.014622
0.0146173
-0.000190839
-0.0126904
0.0103319
-0.000109806
-0.00864387
-1.51952e-05
0.00844259
-0.0102968
-6.53772e-07
-0.00792028
0.00641045
9.73611e-06
4.75429e-06
6.15713e-06
-9.0679e-05
-0.00284729
3.23351e-05
0.00217401
4.06057e-05
0.000158244
-0.00253586
0.00300845
-0.00401158
-0.00401154
-9.96905e-06
0.0048379
6.13161e-05
-0.00619906
-9.68291e-06
0.00740645
-1.94231e-06
-0.00915723
-1.98413e-06
0.0108319
-0.000195547
-0.012745
7.47177e-05
0.0152581
-0.000888025
-0.0162999
0.00050583
0.0213297
-0.00361049
-0.0170303
-0.00229309
-0.0170299
0.00437343
0.0267869
-0.000957199
-0.0173344
-0.000714158
0.0167435
-0.000334434
-0.0136119
-0.000361233
0.0118047
-0.000170456
-0.00989943
-0.000161296
0.00821903
-5.44609e-05
-0.00682547
-6.20072e-05
0.00550233
4.57666e-06
-0.00448831
-5.64232e-06
0.00352548
3.24947e-05
0.000102238
-0.0001646
-0.000139384
-0.000107378
0.000400533
2.89979e-05
-0.000209657
-0.000324169
-0.000426866
-0.000570144
-0.00075626
-0.000905249
-0.000756803
0.00013007
0.0013482
-0.00140837
-0.0112892
-0.0112893
-0.0116396
-0.00963101
-0.00339243
-0.00127824
-0.00523628
0.00843986
0.0135544
0.000260621
7.24307e-05
0.000785275
-0.00361001
0.0213285
0.000506341
-0.0162998
-0.00152492
-0.000546981
-0.000528471
7.5506e-05
-0.0127449
0.0152577
-0.000888018
-3.24583e-05
-0.000157173
-0.000195888
0.0108305
-1.55225e-06
-0.00915658
-0.000271
-0.000447755
-0.000349684
-0.000249839
-9.72479e-06
0.00483783
-0.00619905
0.00740617
-1.91297e-06
-0.000155903
-0.000123832
1.51796e-05
9.73376e-06
1.94897e-06
-8.7376e-05
-4.07813e-05
0.00178286
0.000103135
0.001783
0.000158119
-0.00253572
-1.6453e-05
0.00300877
0.000102366
-9.06858e-05
-0.000159548
-1.64017e-05
3.32404e-05
-6.7642e-05
-7.64897e-05
-0.00141226
5.5537e-05
0.00131262
0.000279226
0.000960295
-0.00020175
-0.00137382
0.00012133
0.000504164
0.000711064
0.00032372
0.0008575
0.000317416
0.000114977
-0.000266261
0.000151017
-6.46691e-05
-6.84472e-05
0.000284947
-6.35934e-05
4.33306e-05
1.72847e-06
2.11251e-06
1.71284e-06
3.12855e-07
2.3729e-06
4.33436e-05
-5.02833e-06
0.000151021
-4.5489e-05
-0.00026628
0.000114983
9.18733e-07
8.42706e-05
7.19632e-05
-4.64523e-05
-0.000280343
8.40347e-05
-0.000150332
0.000280671
0.000855754
-0.000507047
0.000167091
7.62666e-05
4.33227e-05
4.17358e-05
4.13233e-06
-1.78344e-06
-2.14821e-06
-6.40334e-06
-1.36902e-05
-3.03664e-05
1.90369e-05
2.7503e-05
6.46636e-05
0.00017308
-0.00124121
-0.00339906
0.013654
-0.0025308
0.00702732
-0.0151625
-0.00703358
-0.0070329
-0.0151635
-0.00771342
-3.15264e-06
-0.0136152
0.0227697
0.00156558
-0.000926917
-0.0164365
-0.00152318
0.00969001
-0.00728008
-0.0158347
-0.0130912
-0.0134648
-0.00919424
0.000899633
0.00195844
0.000901323
0.000267487
-0.0128944
0.00090175
-0.00771262
-0.0136155
-2.49978e-06
0.00439157
0.00156609
-0.0164366
-0.000926643
0.00206357
-0.000322879
0.020497
-0.0133022
-0.000321158
0.0127472
0.00100562
-0.000568374
0.00195908
0.00158117
-0.0042676
0.00439187
0.00306271
0.000187813
-0.0014994
-0.000567781
-0.000184188
0.00100506
-0.00189752
-2.949e-05
-0.00131802
0.000639507
-0.000295418
-0.000773344
-0.000321144
-6.16396e-05
-4.69999e-06
4.36623e-05
-0.0162048
0.0172655
-0.0194722
0.0193399
-0.00036105
-0.0178072
-5.9148e-05
-0.0002886
0.000632027
0.000386934
-0.000194385
-0.000143029
-0.000104908
-7.55577e-05
5.44801e-05
0.00413324
-7.15118e-05
-8.56457e-05
-0.00247324
0.000132437
-0.00247103
0.00302877
0.000195657
-0.00387557
-0.0039087
0.00308522
9.90802e-05
0.00486102
0.000276007
-0.0058324
-0.00593312
0.000103504
0.00736003
0.000342915
-0.00837774
-0.00862608
6.66007e-05
0.0106763
0.000283349
-0.0114814
-0.0121038
-8.8053e-05
0.000758605
0.00141562
0.00460979
-0.000245423
-0.000274939
-0.000108335
-0.000446286
0.00292864
0.00311916
0.0040511
0.00215828
0.00128752
0.000797537
0.000489007
0.000275125
3.15831e-05
-9.89918e-05
-0.000200501
-0.00178047
0.000164052
-0.00177974
0.00218947
0.000238827
-0.00281431
-0.00281515
0.00219027
0.000129458
9.42758e-05
5.88429e-05
-2.54998e-05
2.49471e-06
-0.000121908
-0.00014119
0.00126906
-0.000140739
0.000836022
0.000119969
-0.00106337
-0.00106424
0.000837002
-9.11814e-05
0.000390328
-7.60599e-05
-7.66027e-05
0.000552373
-6.27849e-05
0.000390695
-0.000408713
0.00136998
-0.000322922
0.00128193
9.95273e-05
-0.0015291
-0.00152551
0.00105742
-0.000121847
-2.54936e-05
-1.76529e-06
3.36162e-07
5.92813e-05
-0.00156053
-3.98609e-05
-0.00193745
1.2275e-05
-0.0027645
-4.57118e-06
-0.00352701
-4.20052e-05
0.00447407
-0.00399286
9.907e-05
-0.00390841
-0.00387651
0.000195302
0.0030852
-0.00247295
-0.00247167
0.000132124
0.00191139
8.35544e-05
0.00307297
-0.00249025
0.00278002
-0.00212296
-2.22581e-05
0.00185293
5.14787e-05
-0.00155886
0.00172362
-2.26953e-06
0.00208701
-0.00171342
0.00158264
-0.000781889
-1.02466e-05
0.000697722
1.03329e-05
-0.000702325
2.52509e-06
0.000752263
0.000466859
-0.000239897
3.29098e-06
2.40045e-05
-3.38454e-05
2.57084e-05
0.000183957
0.000413076
0.000400619
-0.000107417
-0.000139412
-4.08482e-05
-0.000123864
-0.000165194
-0.000217385
-0.000211118
-0.000334867
-0.000287724
-0.000286215
-0.000216635
6.10824e-05
-0.000292886
-0.000295981
-0.000504989
-0.000741045
-4.68919e-05
-4.26234e-05
0.000356452
0.000356051
-0.00136987
-0.0116405
-0.00963958
-0.00339626
0.0214876
9.51077e-05
-0.0214751
0.000260748
-0.0117331
-0.000446245
-0.000376871
-0.00246971
0.000151203
0.000123813
6.0573e-05
3.43043e-05
2.00334e-05
8.17108e-06
3.2329e-05
-0.00240777
-6.17449e-05
-0.00322697
1.29808e-05
-0.00444899
-7.76291e-06
-0.0056401
-6.77519e-05
0.00694988
-0.00619313
0.000103247
-0.00593276
-0.00583366
0.000276
0.00486062
0.00482069
-0.000288592
0.0034836
0.000325086
-0.00423855
-0.00423949
0.00348453
-0.000288462
0.00481973
-0.000117682
0.000500432
0.000283073
0.00013265
0.000248552
-9.11335e-05
-0.000148833
-0.000420246
-0.000539313
-0.000400067
-0.00021742
-0.000336917
-0.000370798
-0.0005069
-0.000547277
-0.000222727
-0.00032815
-0.000284848
0.000167305
-0.000671817
-0.000742437
-0.000252286
-0.000137337
3.18539e-06
0.000155177
0.000325453
0.000228823
-2.41975e-05
-5.83417e-06
-2.89645e-08
-0.0003843
0.000595333
-0.000705765
-0.000198761
0.000288738
0.000681965
0.000315234
-1.85401e-06
3.41313e-05
7.9189e-05
0.00191779
3.83691e-05
0.00256813
-7.59663e-05
-7.90179e-05
7.37608e-05
0.00311152
-0.00385696
-7.13566e-05
-0.00516716
9.84513e-06
0.00641037
-0.00691437
-1.51873e-05
-0.00864428
-0.000109968
0.0103319
-0.00921281
0.00753972
-0.000142597
7.9381e-05
-0.00792069
-8.4107e-07
0.00844302
-2.7357e-05
-1.18252e-05
-4.88254e-06
-1.26886e-06
3.78931e-06
6.29319e-06
4.69887e-06
-0.000123708
-0.000155644
-2.03571e-06
-1.95789e-06
-1.13762e-05
-2.35582e-05
0.0134586
1.55197e-05
-1.82761e-06
-4.93642e-05
0.0178275
9.50272e-05
-0.000337865
-0.000212202
-0.000141894
-9.63037e-05
-6.39947e-05
-3.87876e-05
-0.000134869
0.00183359
0.00133793
0.00133718
0.00183456
-0.000134834
-3.87802e-05
-6.40994e-05
-0.000200381
0.00302981
-9.88066e-05
-7.44103e-05
0.000106994
0.000275386
0.000489125
-0.000117531
-6.24204e-05
-8.53517e-05
-7.54627e-05
5.47494e-05
0.00413334
-0.000131129
-0.000191684
6.09854e-05
0.00493006
-0.00600948
-8.03774e-05
0.00750656
-0.00898401
-7.0312e-05
0.0109643
-0.0128405
1.64962e-05
-0.016205
-4.91906e-05
0.0178261
-0.0175446
-0.000713825
0.0154389
-0.000361844
-0.00046231
-0.000107734
1.57078e-05
-0.00035505
-0.000201303
-0.000300998
-0.000610949
-0.00047764
-0.00107219
-0.00127786
-0.00242488
-0.00523899
0.00843931
-0.00947227
0.00448205
-0.0134651
-0.0158345
-0.00728003
0.00969019
-0.00152355
0.00061053
0.0135539
-0.000107497
0.0228155
-0.000196079
-0.00011922
-5.97355e-05
-6.46447e-05
-0.000128318
-2.08227e-06
-3.22482e-05
-0.000157084
-1.15376e-05
-0.000212163
0.000111426
0.000148228
-0.000141902
-9.62184e-05
-0.000399355
0.0073549
0.00532341
0.000385944
-0.00607873
-0.0060797
0.00532455
-0.000399424
0.00735403
-0.000119141
6.77112e-06
0.000309762
-6.3167e-05
0.000146986
0.000212832
0.000617184
-6.7216e-05
0.0107619
0.00778689
-0.000544476
-4.49604e-05
-0.000251847
0.00238007
-0.000134575
0.00694466
-0.000194067
7.24702e-05
0.000785499
0.00306167
0.0100598
-0.00426812
0.000187404
-0.00149923
-0.00919371
0.0227693
-0.0130909
0.000899946
-0.000184436
-0.00089973
0.00413009
0.000761883
0.00173185
0.0042114
6.62886e-05
-0.000762739
0.00173115
0.0125293
0.00856877
0.0216755
0.0120337
0.0175508
0.0194513
-0.000380592
0.00224435
0.00133669
0.000821199
-0.000118939
0.000797094
0.00128766
-6.66791e-05
-0.000544662
0.000213782
6.82451e-06
0.000248379
0.000156043
8.48314e-05
1.11661e-07
2.95674e-07
2.13709e-06
4.92341e-06
6.98669e-05
0.00552051
7.15313e-06
7.57629e-06
7.19654e-05
0.0134576
4.39588e-05
-0.000287577
-0.00019388
0.000386573
0.000631938
-5.52699e-06
-6.25334e-05
-0.000244782
-0.000321774
0.00141565
0.00460921
0.00292828
0.000758428
6.72483e-05
0.00215677
0.00131912
0.00311989
0.000617892
-0.00010485
0.00491653
-5.06317e-05
-9.77281e-05
-0.000175417
-7.75791e-05
3.17388e-05
0.000147775
0.000313753
-0.000337711
0.0013129
-0.000161861
-6.21689e-05
-5.65839e-06
0.00345847
-7.44642e-05
0.00191146
8.3507e-05
7.19574e-05
8.42549e-05
9.19437e-07
-0.000150354
0.000105245
8.40154e-05
-0.000280373
-4.64584e-05
3.65938e-07
0.000855658
0.000280874
-0.000619826
-0.000512309
0.000551181
-6.30493e-05
0.000224265
-0.000399513
7.88888e-05
0.00951512
-6.98187e-05
-0.000106609
0.00206364
-0.000193759
-0.00189804
9.52871e-05
0.000528554
-9.26607e-06
-0.000129138
-4.55424e-05
-0.000649969
-8.04917e-05
-2.98038e-05
-6.16384e-05
-7.90745e-06
-0.000384312
1.03325e-05
0.00046713
0.0133457
0.0103528
0.000177239
-0.00128627
0.000176696
0.0188217
0.0216765
-0.000251993
-0.000148692
0.000106987
9.95663e-05
0.00128192
0.00105632
-0.00152478
-0.00152929
5.14819e-05
-0.00155848
0.000751976
0.000467072
-0.000284947
-0.00032826
-0.000239907
3.23553e-06
6.56863e-08
-5.86958e-06
0.000228922
0.000325445
0.000288651
0.000682279
0.000857485
-0.000705731
0.000317414
0.000323793
0.000711092
0.000115065
0.000504172
0.00052856
0.000504181
0.00071108
0.000323807
0.000857549
0.000317413
-0.000705711
0.000595294
-0.000198721
0.000682164
0.00028871
0.00032552
0.000228872
-5.88583e-06
-2.41466e-05
0.000697743
-0.000702263
0.000752148
2.39835e-05
3.33588e-06
-0.000239958
-0.000328316
-0.000284869
-0.00067196
0.000167148
-0.000742409
-6.27914e-05
0.000390676
-0.000140797
0.00126904
-7.61195e-05
0.000390321
-6.30805e-05
-0.000742135
0.000167059
-0.000323136
0.00136958
-0.000408218
-0.000121901
0.000836862
0.000836031
0.00011988
-0.00106411
-0.000134878
0.00183379
0.000132235
0.00191144
-0.00248998
8.36391e-05
0.00307247
-0.00352688
0.00277984
-2.22685e-05
-0.00212283
0.00185245
4.89093e-05
6.751e-05
7.55774e-05
5.78103e-05
-3.03942e-05
-0.000259341
-0.000443698
0.00413026
-0.00340501
0.013995
-0.010263
0.00172556
0.0127468
-0.000321523
-0.013302
0.00969001
-0.00727993
-0.0158342
-0.0134647
-0.0130907
-0.0136154
0.0227694
0.00439154
0.00306247
-3.24684e-06
-0.00771372
-0.0151632
-0.00703362
-0.0128946
-0.00703319
-0.015164
-0.00771353
-0.0136159
0.0227692
-0.0134645
-0.0130911
-0.0158346
-0.00727998
0.00968998
-0.0133022
0.0204967
-0.0210991
0.0139947
0.00172594
0.0127471
-0.0102631
0.0063615
0.0147787
0.0103522
0.00761188
0.0180335
0.00629618
0.003939
0.0113998
-0.0116072
-0.011607
0.003939
0.0062957
0.0180333
0.00761183
0.0103519
0.0133441
0.01478
0.00636256
0.00823793
0.00693993
-0.0039872
0.0188209
0.0211142
0.0216745
0.0173779
0.0175501
0.019451
0.0175505
-0.0325734
0.000761572
0.000762077
-0.0092341
0.0173777
0.0216745
0.0211144
0.0188217
0.00693954
0.00823786
0.00629398
-0.000546036
-0.000282704
-0.000107154
-0.0069123
-0.00896382
-0.00854298
-0.0198528
-0.0237041
0.00448264
-0.00947236
0.0214873
-0.0175439
0.0154388
-0.0128404
0.0109637
-0.00898391
0.0075061
-0.00600961
0.0049301
-0.00385659
0.00311157
-0.00240781
0.00191779
-0.00156055
0.0015826
-0.00171327
0.00172353
-0.00155869
0.00128183
9.9425e-05
0.00105726
-0.000408702
0.00136995
-0.000322981
0.000466872
-9.48022e-05
4.89242e-05
6.76115e-05
7.5522e-05
5.75326e-05
-3.06783e-05
-0.000259691
-0.000444006
0.00413005
-0.00340495
-0.0013182
0.00218911
0.000639335
-0.00818393
-0.008184
0.00218912
-0.0013181
0.000639465
-0.00364763
-0.0210994
0.0204967
-0.00152338
-0.0164366
0.00156552
-0.000926973
0.00206368
-0.000322723
-0.000376909
-0.00246984
-0.00124132
-0.00246979
0.00156524
0.00439146
0.0100593
0.00306261
-0.00253105
-0.00253089
0.0100594
0.000520683
-0.00637082
0.00694452
0.00694444
-0.000193989
-0.0063708
0.000187371
0.00158117
0.00195831
0.00090002
-0.00919409
0.000900576
0.000266825
0.0136543
-0.00339938
0.00437319
-0.00748937
-0.00938595
-0.020201
-0.0147914
0.0314505
-0.0170302
0.0213284
0.0213293
0.000505994
0.0167439
-0.000334319
-0.013612
0.0118044
-0.00017033
-0.00989966
0.00821878
-5.44673e-05
-0.00682534
0.00550244
4.51818e-06
-0.00448862
0.00352558
3.24023e-05
-0.00284733
0.00217404
4.04809e-05
-0.001819
0.00131269
5.55511e-05
-0.0014121
-0.00020169
-0.0013737
-0.0013737
0.000115042
-0.000266184
8.67341e-05
-0.000393105
-1.58774e-05
0.000246877
0.000246841
-0.000294124
-1.77431e-06
0.000299975
0.000299966
-0.000216629
4.3318e-05
0.000490009
0.000489772
-0.000103305
0.000127934
-0.000238142
-0.000238738
-0.000400049
-0.000217434
-0.000336975
-0.000370857
-0.000547314
-0.000222771
0.000397902
-0.000597416
8.49967e-05
0.000280854
0.000855647
-0.000507067
-0.000280401
-4.64732e-05
-0.000493062
2.40664e-06
0.000495384
-0.00079629
4.26407e-07
9.52926e-05
0.000797128
-7.4753e-05
7.82791e-06
8.23196e-05
3.58742e-07
8.14663e-06
1.99957e-05
3.43512e-05
6.05229e-05
0.000123969
0.000151205
9.51005e-05
-0.0214756
0.0228155
-0.0235777
0.0206905
-0.017556
0.0154881
-0.0130948
0.0110616
-0.009212
0.00753861
-0.00619262
0.00491587
-0.0039926
0.00307274
-0.00249013
0.00185283
5.13858e-05
-0.00152907
-0.00152533
-0.00106358
0.00133725
0.000164138
0.00133771
-0.00178016
-0.00247128
-0.00247307
0.00308521
0.00302912
0.000195207
-0.00390854
9.93089e-05
-0.00399276
-4.19098e-05
0.00447381
-0.00444878
-7.75608e-06
0.00552018
-0.00516652
0.00413321
1.30928e-05
0.00345826
-4.52125e-06
-0.0027643
0.00208687
-2.26916e-06
0.00172351
2.50721e-06
-0.000702265
2.40914e-05
-7.47362e-05
0.000397908
-0.000222796
-0.000547273
-0.000370798
-0.00033683
-0.000217476
-0.000399469
0.000224234
-0.00010333
2.3365e-05
-0.00061971
0.000280669
5.56489e-06
8.50114e-05
0.000855712
-0.000597331
0.00079712
9.53072e-05
-1.78706e-05
-0.000216607
4.17503e-05
5.88611e-05
9.43035e-05
0.000129428
0.000148239
0.000111427
-4.47212e-05
-0.000251706
0.00238006
-0.00263776
-0.00603571
-0.00449164
-0.001898
0.00100537
-0.000184625
-0.000321043
-0.00149921
-0.0164364
-0.000926853
0.00206355
-0.000193741
7.23674e-05
0.000260673
-0.0117335
0.010963
-0.0141255
0.00432839
-0.0344289
0.00426072
-0.0145933
-0.000289266
0.0149769
0.0147922
-0.0172708
-0.000263919
0.00141544
0.0046098
-0.000245179
-0.00523789
-0.00963281
-0.0116395
-0.00136755
-0.00242966
-0.00339561
-0.00127774
-0.000477456
-0.00106928
-0.000742332
-0.000506726
-0.000610401
-0.000107464
-0.000462654
4.39877e-05
0.0178264
-0.0194714
0.0172651
-0.0178072
-0.000360872
0.0193396
-0.000106963
-0.000195985
-0.000377018
-0.000322943
-0.00364769
-2.96096e-05
-0.000567958
0.000187739
-0.00426755
-3.16627e-06
0.00702727
-0.00288095
-0.0112894
-0.00140765
0.00134902
0.000129926
-0.000757931
-0.000905262
-0.000756856
-0.000570219
-0.000427092
-0.000324111
-0.000209649
2.91326e-05
0.000400574
0.000400593
0.000413054
-4.08428e-05
-0.000124042
-0.00021156
-0.000335872
-0.000354297
1.59226e-05
-0.000300484
-0.000201461
-0.000131189
-0.000190953
6.1242e-05
6.98863e-05
0.00641021
-0.00691437
0.00552006
-0.0056397
-6.77907e-05
0.00694981
-0.00864364
-0.00010974
0.0103318
-0.0126907
-0.000190246
0.014616
-5.86114e-05
-0.0146214
0.0123574
-2.39342e-05
0.0134582
-0.0162054
-4.94046e-05
-1.84277e-06
-0.000119066
-5.9695e-05
-2.99649e-05
-0.0102966
0.00844241
-5.43605e-07
0.0095147
-0.0116064
-7.01386e-05
7.22946e-05
-5.2913e-06
-6.25654e-05
-0.000107907
0.013554
0.000610802
-0.00152341
0.00843878
-0.000321252
-0.000539027
0.00292766
0.00856666
0.0125287
0.00405029
0.00312687
0.00075897
-0.000288609
0.000632229
0.000386981
7.62168e-06
7.43728e-06
4.91961e-06
2.22764e-06
-7.60278e-05
-7.78954e-05
7.3977e-05
5.47601e-05
0.00413323
-0.00444886
0.00345836
-0.003527
-4.20798e-05
0.00447394
-7.93497e-06
-1.18154e-05
-2.73253e-05
-1.51977e-05
4.73593e-06
9.87233e-06
-0.0051669
-7.15515e-05
-0.000123712
0.00550226
-6.19574e-05
-0.00682609
-5.48312e-05
0.0082188
-0.000160745
-0.00990005
-0.000170737
0.0118038
-0.00036082
-0.0136117
-0.000335477
0.0167437
-0.000714157
-0.0173343
-0.000957349
0.0267864
0.0177628
-0.00361092
0.000785418
0.000785334
0.0267868
-0.000957237
-0.0173342
-0.0036108
-0.0170295
0.00437353
0.0314502
-0.00229256
-0.0147911
-0.0201998
-0.00938551
-0.0237051
-0.00748925
-0.00288075
0.0070273
-0.00426772
0.000900926
0.00195885
-0.00919399
0.000900207
-0.00149937
-0.000568372
-0.000899782
-0.000344365
-0.000134646
-0.000229452
0.000173047
-0.000547242
0.000505999
-0.0162991
0.0152588
-0.0127452
0.0108309
0.0108306
-1.4638e-06
-0.00915712
-1.6678e-06
0.00740601
-9.41975e-06
-0.00619906
6.14483e-05
0.00483783
-9.85645e-06
-0.00401193
0.000102366
0.0030087
-1.64534e-05
-0.00253577
0.000158223
0.00178292
-4.07691e-05
-0.00167638
0.000279336
0.000960408
0.000121334
0.000960341
-0.000201708
-0.00141218
5.55252e-05
0.00131268
5.93293e-05
-0.00181899
4.05165e-05
0.00217398
3.2436e-05
-0.00284741
3.23248e-05
0.00352541
-5.5742e-06
-0.00448865
4.30731e-06
6.13299e-05
0.00483776
-4.53159e-05
-0.00401164
0.00300857
-0.00253567
0.00178292
0.000103052
-0.00167636
0.000279219
-7.64773e-05
-6.76289e-05
0.000158227
-0.000139651
-0.000165288
-0.000217628
-0.000287949
-0.000295134
-4.42297e-05
0.000356616
0.000356995
-0.0112892
-0.0116393
-0.00136743
-4.51823e-05
-0.0162984
-0.000888686
0.0152587
7.51937e-05
-0.0127451
-0.000195731
-0.000157088
-0.000528645
7.48431e-05
-0.00064956
-0.000447663
-1.66325e-06
-0.0091569
0.00740627
-0.00619927
-9.62184e-06
-0.00034937
-0.000128365
-0.000249687
-9.96165e-06
-0.000159516
-1.64987e-05
3.34752e-05
-8.73634e-05
-4.07628e-05
4.92297e-05
-0.000472375
8.67487e-05
-0.000266156
0.000495213
0.000195557
0.000195525
0.000495231
0.000230736
-4.54294e-05
0.000412276
-0.000850562
-5.61439e-05
1.68965e-05
0.00061309
5.56218e-05
-0.000405026
0.000218028
0.000560115
0.000395684
0.000500955
0.000284971
-6.35651e-05
-6.84794e-05
-6.46244e-05
-2.00817e-05
0.000392038
-6.46514e-05
0.000230735
0.00041233
-4.54456e-05
-0.000159839
-5.60643e-05
0.000613114
1.68781e-05
-8.94024e-05
3.95837e-07
-0.000796311
0.000495405
2.36302e-06
-0.000493062
-4.6464e-05
1.72051e-06
-6.84182e-05
-5.19634e-05
0.000151018
-0.000159866
-0.000114259
-5.02329e-06
4.33262e-05
1.74382e-06
3.67541e-07
2.11205e-06
-5.03857e-06
0.000151039
-0.000393124
-0.000114148
-7.65029e-05
1.95763e-06
9.74098e-06
1.51801e-05
1.90052e-05
2.75871e-05
6.45773e-05
-3.24688e-05
-0.000887622
-3.24668e-05
0.000151008
-0.000713775
0.0214877
9.485e-05
0.0178271
-4.91333e-05
0.0172656
-5.90015e-05
0.0146173
-0.000190507
-0.0126905
0.0110624
6.68885e-05
0.0073593
0.00735437
0.000343098
-0.00862611
0.0106747
0.0107627
0.000282956
-0.0121034
-8.76009e-05
-0.0130965
0.0154882
-0.0178074
0.0193393
-0.000360297
-0.0175571
-0.000263391
0.0147912
0.0149775
-0.000289816
-0.0172702
0.0206914
-0.0235777
-0.000106715
-0.0194715
0.0228156
-0.0214755
0.0135544
0.000260728
-0.0117334
-0.000446228
0.0109632
-0.000773269
-0.0141258
-0.0103289
0.00432834
0.00426156
-0.0344297
0.0125294
0.0120329
0.00173098
-0.000380669
-0.0109391
-0.000424042
0.0107633
0.0107648
-0.000761447
-0.0114803
0.000283119
0.0107614
0.010676
-0.0121033
-8.84885e-05
-0.00862614
0.000343473
0.00735396
0.00735988
6.65824e-05
-0.00593308
0.000275946
0.00481956
0.00486094
0.000103403
0.000248644
0.000156292
8.48446e-05
8.78554e-08
2.31131e-07
-1.89732e-06
3.3354e-05
7.92708e-05
3.83717e-05
0.00256807
-0.00276433
0.00208708
-0.002123
-2.21659e-05
0.00277998
-4.62091e-06
-4.9061e-06
-1.2706e-06
-2.34024e-06
-1.76632e-06
-1.02738e-05
-0.000781863
-0.000384277
0.000155186
0.000315395
0.000183819
2.57783e-05
3.20348e-06
-5.32709e-08
1.0337e-05
-3.39158e-05
-5.06276e-05
-7.54733e-05
-0.000104952
-0.000143029
-0.000194443
0.000214593
0.00131594
0.002156
0.00128704
0.000622331
7.34475e-06
-0.000119059
-6.69431e-05
-0.00837745
-0.00608001
0.000385591
0.00532302
0.00532415
-0.000399457
-0.00423978
0.000325546
0.0034835
0.00348421
-0.000288566
-0.00387576
0.000195521
0.00302917
0.00308548
-0.00390866
9.93001e-05
-6.1998e-05
0.000316422
0.000796613
0.000488861
0.000147837
-8.56674e-05
-9.89267e-05
-0.00247137
0.00013219
0.00183413
0.00191154
-0.00247289
8.35228e-05
-9.78411e-05
3.14428e-05
0.000275284
0.000107017
-7.82588e-05
-0.000175581
-0.000137412
-0.000252588
-0.000148778
-0.000420263
-0.00053928
-0.000481509
-0.000417609
-0.000500993
-0.000536429
-0.000420689
0.000551155
-0.00051868
0.000248555
0.000132671
-7.4341e-05
-0.000134895
-3.87385e-05
3.77582e-06
1.2218e-05
-0.00193749
-3.98983e-05
6.26971e-06
1.31104e-05
-0.00322696
-6.16379e-05
-9.06964e-05
0.000102429
-9.06487e-05
-0.000123734
-0.000155726
6.04435e-05
0.000123922
-0.000361391
0.0154392
1.56014e-05
0.0134587
-2.36666e-05
0.0123573
-3.02051e-05
0.0103324
-0.000110096
-0.00864378
0.00753918
0.000103657
0.00486055
0.00482003
0.000275684
-0.00593252
-0.0058338
-0.000399661
-0.00423872
-0.000119327
0.00133559
0.0022424
0.00421011
6.58426e-05
6.59185e-05
0.00173074
-0.000380546
-0.0145951
-0.0109373
-0.000295341
7.23874e-05
-1.9806e-06
-0.000196043
-0.000119247
-0.000128328
-1.14927e-05
-0.000156966
-0.000195865
-0.000155737
-1.53235e-06
-1.95966e-06
-6.45978e-05
-3.03746e-05
-1.3607e-05
-6.40218e-06
-2.15011e-06
4.1386e-06
5.75712e-05
8.23445e-05
3.50472e-07
8.2043e-06
1.99825e-05
3.42574e-05
-6.14884e-05
0.00750574
-8.03457e-05
0.00641061
9.95509e-06
-0.00691442
-1.52235e-05
0.00694973
-6.78235e-05
-0.00563971
0.004916
-0.00619301
-0.000105229
6.95469e-05
6.15261e-05
-0.000335947
-0.00050669
-0.000741076
-0.000292923
-0.000286559
-0.000216597
-0.000164454
-0.000211826
-0.000124141
-0.000139045
-0.00010734
-4.06951e-05
0.00041311
0.000315757
0.000184045
-0.00156047
-3.98699e-05
0.00158257
-1.02346e-05
0.00069772
1.03262e-05
7.83616e-06
-1.28483e-06
-4.90872e-06
-1.18204e-05
-2.74504e-05
-5.95834e-05
-1.13802e-05
-2.02409e-06
-7.64825e-07
-0.00791996
0.00844239
-0.0102969
0.00951554
-0.00898413
-7.03343e-05
0.0109636
-0.000160939
-0.0128405
-0.000106451
-0.000461827
-0.0175442
-0.00339457
-0.00947277
0.00843947
-0.00854486
-0.0198512
0.00448289
-0.00963066
-0.00523723
-0.00896331
-0.00691188
0.000610895
-0.000108158
-0.000274794
-0.000547943
-0.000539465
0.00629373
0.00460922
-0.000244552
-0.00010752
-0.0012789
-0.00242815
-0.000476792
-0.00107273
-0.000299837
-0.000612194
1.65958e-05
7.89851e-05
7.15288e-05
-0.0116063
-0.0146218
4.37247e-05
-0.016205
-6.21312e-05
-4.45237e-06
7.94073e-06
7.76251e-06
-0.000200863