/*--------------------------------*- C++ -*----------------------------------*\
| =========                 |                                                 |
| \\      /  F ield         | OpenFOAM: The Open Source CFD Toolbox           |
|  \\    /   O peration     | Version:  2306                                  |
|   \\  /    A nd           | Website:  www.openfoam.com                      |
|    \\/     M anipulation  |                                                 |
\*---------------------------------------------------------------------------*/
FoamFile
{
    version     2.0;
    format      ascii;
    arch        "LSB;label=32;scalar=64";
    class       volScalarField;
    location    "1.8";
    object      gradTy;
}
// * * * * * * * * * * * * * * * * * * * * * * * * * * * * * * * * * * * * * //

dimensions      [0 -1 0 1 0 0 0];

internalField   nonuniform List<scalar> 
2658
(
0.00839124
0.00486319
0.00151251
-0.000167554
-0.0169832
0.0208425
-0.0174767
0.0147217
-0.000219973
-0.0147762
0.00455013
-0.0343554
0.0210033
0.0213572
0.0173105
0.0177694
0.0194604
0.017495
0.0177185
0.0210914
0.0203353
0.0177473
0.00587694
-0.00396535
0.00651275
0.0194423
-0.00422887
0.00117043
0.0158592
-8.02699e-07
-0.0158594
0.00422896
-0.0194433
-0.00587681
-0.00651251
0.00396584
-0.00109933
0.00166696
-0.0177528
-0.0203365
-0.0210929
-0.0177192
-0.0174937
0.0087261
-0.00125828
-0.000576523
-0.00455039
0.00908433
-0.0177726
-0.0173107
-0.0213557
-0.0210034
-0.0186521
0.00385285
-0.00695812
-0.00651129
0.000456575
-0.0111288
-1.14949e-07
-0.000155607
-0.000456305
0.006511
0.00695855
-0.00385336
0.00438976
-0.0100158
-0.0140132
-0.000643165
-0.0230858
0.0230859
2.16263e-07
0.019275
-0.000220761
0.015636
-3.07402e-05
-0.0118575
-0.0117455
0.000358861
0.0111699
0.00732849
-0.00786848
-0.000622066
0.0102755
0.0154581
-0.000321544
-0.000176324
2.07937e-05
9.06605e-05
0.000100502
9.10064e-05
6.8816e-05
-0.000172665
8.96446e-05
0.000459156
-0.000196036
-0.000495563
-7.95381e-05
-0.00050185
-8.66325e-05
-0.000186484
-0.000549055
-0.000143958
-0.000495651
-0.000255501
-0.000214741
0.000498146
-0.000177845
-8.13601e-06
6.8278e-05
-0.000517023
0.00017173
-0.000232841
-8.28347e-09
0.000232842
-0.000171765
0.000517011
0.000214753
-0.000498165
0.000495635
0.000255494
0.000143901
0.000549048
0.000186476
8.66267e-05
-0.000393289
-0.000380512
-0.000459183
0.000495609
7.95699e-05
0.000196071
0.000539062
0.000134724
0.000256706
0.000236626
0.000482697
-0.000220842
1.84278e-05
2.73506e-05
-0.000512753
0.000512874
-1.84727e-05
0.000220864
-0.000129767
-0.000134858
-1.23524e-06
0.000134421
2.42483e-07
2.824e-07
-0.000269228
0.000265347
6.08033e-07
2.13948e-05
0.000143426
-0.000161877
0.00064251
0.000147758
0.000603306
0.000715488
0.000759433
0.000598831
0.000602978
0.000695634
0.000602946
0.000608585
0.000775935
0.000722204
0.000629817
0.000201985
-3.63032e-05
0.000149148
-0.00100843
0.00141381
-0.0016718
0.00223458
-0.00277162
0.00348968
-0.00440552
0.00524759
-0.00668069
0.00753555
-0.00969753
0.0103244
-0.0135911
0.0135206
0.0132417
0.0111028
0.0105476
0.0147769
0.0169827
0.000167373
-0.020843
0.0140133
0.010015
-0.0043899
0.0343549
-0.00422843
0.00032127
0.000176151
-2.08612e-05
-9.08202e-05
-0.000100641
-9.09868e-05
-6.8809e-05
0.000172669
-8.96043e-05
3.64544e-06
-0.000211291
8.17215e-05
-0.000271337
0.000271329
0.000211314
-3.66625e-06
-8.17489e-05
-7.98906e-05
0.000380549
0.000393278
-0.000501158
0.000447517
0.000106039
-1.07025e-05
-7.22792e-05
6.83793e-05
-5.49294e-05
-5.4007e-05
-2.44259e-09
5.39921e-05
-0.000106142
0.000177834
-0.000345127
8.16807e-06
-0.000380443
0.000380489
0.000345146
3.27531e-09
-0.000240111
-0.000263822
0.000263852
-7.82442e-05
0.000240133
-3.60038e-05
-1.38196e-09
-0.000186184
-8.37538e-05
0.000244643
-6.34659e-05
2.2687e-08
1.62211e-08
-6.88762e-09
-0.000382286
0.000265603
0.000723637
-0.000178775
0.000574328
-0.000791788
0.00100742
-0.00115586
0.0011558
0.000157339
0.00144586
0.000101826
-0.00192188
0.00237911
6.03069e-05
-0.00306004
0.00381728
6.05994e-06
-0.00472804
0.00586372
-9.75527e-05
-0.00699848
0.00860272
-0.000348366
-0.00988356
0.0120862
-0.00100238
-0.0133058
0.0162615
-0.00285066
-0.0181587
-0.00848422
-0.0189969
0.0189971
-0.00116982
-0.00528096
0.00991106
0.0088385
-9.36531e-08
-0.00625459
0.00625464
0.00654027
-5.71406e-08
-0.00787755
0.00787755
0.00319395
-4.21603e-08
-0.0205984
0.0205982
-0.0129412
1.29453e-07
0.0129408
-0.010102
0.00641262
0.0147774
0.0103209
0.0133125
-0.0199074
0.014071
0.00184867
0.00119015
0.000174537
-0.00319405
-0.00116461
-0.00332834
-0.0114
0.00626433
0.0177935
0.00759156
0.00846406
-0.00437966
9.8939e-08
0.00437991
0.00332835
-0.0140711
0.019907
-0.0147788
-0.00641353
0.0101017
-0.00184904
-0.00119024
-0.00846321
-0.00759213
-0.0177932
-0.00626465
0.0113998
-0.0114758
-0.00431284
-0.0164663
-0.00381005
0.0107392
0.00257324
-0.00246999
0.0116707
-0.00236048
-0.00287283
-4.60082e-06
-0.00016535
-0.000270934
-0.000265203
-0.000219318
-0.000168426
-0.000120679
-0.000130352
-0.000946893
-0.000805454
-0.000724502
-0.00111071
0.00160225
-0.00188985
0.00255941
-0.00313972
0.00400067
-0.0050089
0.00600954
-0.00764574
0.00861197
-0.01117
0.0117462
-0.0154584
0.000219418
-0.0147212
0.017478
-0.0192754
0.0174649
-7.09637e-08
-0.0174647
0.0145024
-0.0130439
0.0105858
-0.008447
0.0111669
9.53729e-05
0.00727839
0.000400372
-0.00861114
-0.000461765
-0.00570601
-0.00652466
0.000405377
0.00573835
0.00626961
-0.0072955
-0.000507925
0.00835701
0.000309197
-0.00882837
0.0114241
-0.000399076
-0.0105475
-0.00019994
0.000576576
-0.00908451
0.0114755
-0.0116711
0.00246977
0.000825105
-0.000131124
-9.52124e-08
0.000129324
-5.12512e-05
-0.000177503
-0.000196032
-0.000170196
-0.000134124
-9.55167e-05
5.49252e-05
-6.83808e-05
7.22648e-05
7.8196e-05
1.07211e-05
-0.000447548
0.000501168
-0.000321662
0.000275847
0.000165059
0.000139302
0.000335915
0.000241444
-6.94534e-05
-0.000852654
0.00152648
-7.50098e-06
-0.00188248
0.00151343
-0.00116962
-0.000128252
-2.48689e-05
0.000371903
0.000376443
0.000373946
0.000236855
0.000272446
-1.06164e-05
9.3221e-05
0.000142326
-2.31312e-05
-0.000230274
-4.1523e-05
-8.44956e-05
-0.000162276
-0.00017159
7.40735e-05
8.49766e-05
0.000108922
0.00138799
0.0012212
-0.00138914
-0.00121164
0.000116428
0.00110445
-0.00014387
5.12563e-07
-0.000216421
-0.000457834
-0.000461954
-0.000776878
-0.000347007
-0.00026864
-0.000414251
-0.000636077
5.2313e-06
5.39887e-05
0.000129839
0.00336258
0.00305736
-0.00375362
-0.0032462
0.000259244
0.00266971
-0.00202313
0.00018149
0.00172991
-0.000193165
0.00196127
-0.00233897
0.000191664
0.00216744
-0.00158358
0.000124288
2.2237e-05
-6.71649e-05
-0.00144564
1.69733e-05
0.00121084
-0.000159159
-0.000943021
-0.000197779
-8.68533e-05
-2.4876e-05
3.538e-05
0.000106613
0.000169243
0.000163111
-0.000330277
0.000146919
0.000236166
0.000144183
1.62543e-06
5.91044e-05
9.3567e-05
0.000102433
-0.000231767
-0.00046839
-0.000795541
-0.000790363
-0.001305
-0.00124938
-0.00206382
-0.00123072
-0.000625725
-0.00123416
-0.00288082
-0.000398181
-0.00011476
7.13832e-05
0.00729558
0.00652544
-0.00835666
-0.00732731
0.000461825
0.00570627
-0.0049811
0.000350376
0.0039836
-0.00034417
0.00457421
-0.00573797
0.000378689
0.00505272
-0.00412171
0.000275937
4.79974e-05
3.39491e-05
-0.000101798
-0.00237883
1.13973e-05
0.00192189
-0.000101844
-3.85787e-05
-0.0019168
0.00256627
-0.00311327
0.00311337
7.33925e-05
-0.00403992
5.50494e-05
0.00487129
3.56281e-05
-0.00611342
7.23285e-05
0.00728104
-6.8186e-05
-0.00882387
6.94776e-05
0.0103819
-0.000403049
-0.0120834
-4.03696e-05
0.0141266
-0.00162381
-0.0152752
-0.0012692
0.0175148
-3.32881e-07
-0.0175148
0.00848285
0.0181597
0.00284946
-0.0162609
-0.000178955
0.0133054
0.00100167
-0.0120856
-5.16637e-05
0.0098848
0.000347661
-0.00860177
-2.34211e-05
0.00699934
9.67142e-05
-0.00586346
-6.56659e-06
0.00472835
-6.41264e-06
-0.00381701
4.35087e-06
0.00306024
-6.02443e-05
-4.15298e-05
-0.000162484
-0.000104406
-3.93492e-05
0.000194433
-1.01316e-07
-6.95043e-09
-2.29491e-07
2.27337e-08
2.11256e-07
4.02385e-07
8.3196e-07
2.95874e-06
9.54399e-07
-2.95918e-07
-9.92337e-07
0.00533574
-0.00533652
-0.00743132
-0.00718197
-0.00203683
-0.00389169
-0.0120772
0.0352859
-0.00307479
0.00032745
-0.000109797
-0.00025268
0.00126925
0.0152761
0.00162288
-0.014126
-1.19245e-07
-1.19695e-07
-1.36719e-07
0.000402866
-0.0103818
0.0120836
4.0324e-05
-0.000197116
-0.000207302
-6.97063e-05
0.00882406
6.79642e-05
-0.00728117
1.15063e-07
-1.3637e-08
-5.06935e-08
-7.03838e-08
-7.37247e-05
0.00404002
-0.00487124
0.00611382
-7.21495e-05
-0.000182189
-0.000142224
-6.60342e-08
-3.76579e-08
8.67513e-09
-7.54906e-09
-0.0001574
0.00160168
-1.76051e-08
-0.00160173
3.8626e-05
0.00191688
0.000100979
-0.00256635
4.14905e-05
0.00010173
2.15734e-08
-0.000101193
5.12813e-08
6.71408e-05
2.4872e-05
0.000943059
0.000159053
-0.00121083
8.68682e-05
-0.0010074
0.000382328
0.00079179
3.36972e-08
-0.000574301
0.000178828
-0.000723681
-0.000201998
-0.000265584
-2.78213e-05
-0.000161321
-8.53486e-05
6.34577e-05
0.000186165
-0.000244682
8.37786e-05
-0.000253572
0.000186376
-6.41449e-09
-0.00018638
-9.31282e-05
0.000501832
0.000253574
3.60312e-05
8.53749e-05
-6.82717e-05
0.000161338
2.78124e-05
3.69704e-05
-0.000178468
-7.72922e-05
0.000253086
0.000236467
-5.35269e-05
6.2232e-05
0.000349716
-0.000490887
0.000477289
-5.79046e-05
2.49019e-09
3.08088e-08
1.92911e-08
-5.49575e-09
5.21479e-09
-1.64483e-08
-5.19519e-09
2.56639e-08
-3.46644e-08
-2.78496e-08
1.19692e-07
1.02734e-07
-7.02989e-08
-1.17588e-07
8.03123e-09
-4.457e-07
-0.00991155
0.00528122
-0.00452022
0.00751263
-0.00751283
0.00451998
-0.0149639
0.00155846
-0.00600067
0.013766
0.00348333
-0.000317165
0.0128851
-0.0114334
-0.00674239
-0.0176091
-0.00571091
-0.00861116
-0.0125264
-0.00716743
0.000710117
0.00624492
0.00192325
-1.66208e-06
2.74188e-07
-0.00192244
0.0149635
0.00600051
-0.00155885
0.00464874
-0.00348355
-0.0128856
0.000316826
0.00149382
-0.00257341
-0.0107393
0.00380921
0.0164653
0.00431274
0.00750305
-0.00610757
-0.00624641
9.11662e-07
-0.00226979
-0.00464887
0.000371065
-0.000442028
-0.00728317
0.00610746
0.00123643
-0.00750307
-0.00017128
-0.000174723
0.00116439
-0.000825104
0.000130978
0.000199878
-0.00186261
-0.00421972
-0.00220912
-5.70468e-05
0.0101378
0.00882993
-0.0114242
-0.0102745
0.000622268
0.00786853
-0.000309283
-0.000134856
-0.00220023
-0.00130452
2.82269e-05
9.83692e-05
0.000112239
0.000109563
0.000121127
-0.00259966
-0.00023001
7.42443e-05
0.00243745
-6.34753e-05
-0.00310465
0.00396531
-9.36877e-05
-0.00495902
0.00383758
-0.00302624
-0.000235761
-0.00479366
-0.000112918
-0.00760615
0.00581418
-0.000319641
-0.00727795
-9.55758e-05
-0.0111668
0.00844645
-0.000400625
-0.0105856
3.13719e-05
-0.0156368
0.0118566
-0.000359759
-0.000837735
-0.00412199
-0.0124046
-0.0123813
-0.0194658
-0.00181992
0.0323435
-0.00297903
-0.00312721
-0.00151244
-0.000686564
-0.000413887
-0.000260302
-0.000158841
-8.0674e-05
-5.42319e-05
5.924e-05
2.1774e-05
0.00345835
1.31879e-07
-0.00345858
0.00440657
7.02884e-08
-0.00553086
0.0055308
-0.00440653
-3.03983e-08
-2.90353e-08
1.1964e-08
3.69596e-05
9.9911e-05
-1.42205e-05
0.000749572
2.67495e-07
-0.000749722
0.0016264
1.25635e-07
-0.00208083
0.00208064
-0.00162622
2.694e-05
0.000201957
-0.000247003
0.000247027
-0.000134954
-6.56458e-05
-0.000202031
0.000852743
6.96013e-05
-0.000241582
0.00116999
7.59249e-06
-0.00151369
0.00188253
-0.00152634
1.41166e-05
-3.69488e-05
-3.53841e-05
0.000120644
-1.68937e-05
0.00100847
0.000130452
-0.00138793
-0.000124235
0.00138919
0.000193152
-0.00172978
-0.000181509
0.00202393
0.00313959
0.000235916
-0.00383778
0.00495855
9.38945e-05
0.00302683
-0.0024377
0.00310466
6.34798e-05
0.00184936
0.000174013
-0.00255908
0.00188985
0.00121203
-0.00110458
-0.000116383
-0.00160202
0.000128149
0.00111067
0.000724657
0.000143797
-0.00122112
0.000805494
0.000947
-0.00027585
-0.000106568
-0.00016497
0.00138561
-0.000139326
-9.99125e-05
-0.000335819
0.00144479
-0.000598842
-0.000603072
0.000330326
-0.000163082
-0.000169257
-0.000142254
-0.000272467
-0.000194422
3.93047e-05
0.000104568
1.06687e-05
8.47307e-05
0.000162371
0.000234984
0.000162617
0.000269069
0.000316095
-0.000316612
-0.000235007
-5.50177e-05
-0.000366747
0.000365954
0.000414552
0.000626162
0.000318336
-0.000319378
-0.000374343
0.000375055
0.00123647
0.00743274
0.0071839
0.0020404
-0.0135201
-0.000427863
-0.0132414
-0.00032753
0.00125816
-0.0323437
0.00236031
0.00287252
4.16314e-06
0.000165025
0.000270482
0.000264976
0.000219153
0.000168363
-1.13247e-05
0.00167199
0.00017577
-0.00216736
-0.000191791
0.00233897
0.000261677
-0.00266954
-0.000258701
0.00324724
0.00500909
0.000319336
-0.0058147
0.00760594
0.000113009
0.00479417
-0.0061661
-3.88854e-05
0.00686179
-1.46808e-08
-0.00848019
0.00848005
-0.00686181
3.88142e-05
0.0061666
8.44951e-05
1.15683e-07
2.0358e-07
5.72621e-08
4.28057e-07
-2.70874e-05
-0.000144666
-0.000643283
0.000163516
9.6886e-05
-0.000482855
-0.000236797
-0.000256773
-0.000477399
-0.000134705
-0.000539034
-0.000759198
-0.000715398
5.76351e-05
-0.000603541
-0.000147847
-0.000236087
-0.000371769
-0.00037645
-0.000373944
-0.000775919
-0.000608608
0.000321642
-0.000602959
-0.000695949
0.00146717
-0.000149159
0.000197793
3.62409e-05
-0.000722234
-0.000629941
-0.000236646
2.32689e-05
-9.3489e-05
-8.47766e-05
-0.00141366
-0.000108804
0.00158392
0.000230317
4.361e-05
-7.35559e-05
-0.00223438
0.00277205
0.000230218
-0.00336233
-0.000275828
0.00412237
0.00375363
0.000344098
-0.00398392
-0.000350427
0.00498223
0.00764535
-0.00600882
-9.8161e-05
-0.000124305
-0.00505201
-0.00037816
-0.00457357
0.000195903
0.00017003
0.00013402
9.5494e-05
-2.22439e-05
-3.39456e-05
-4.79818e-05
0.000142168
0.000182049
-6.68112e-05
6.6623e-05
9.37357e-05
0.000507665
-0.00917102
-0.000205457
0.000133591
0.00068515
-0.012954
0.000427482
0.000194528
0.000126111
9.26292e-05
6.79338e-05
4.78778e-05
3.01543e-05
7.50797e-06
0.00245994
-0.00272275
0.00272294
-0.00245967
-7.62117e-06
-3.01155e-05
-4.78965e-05
-2.18902e-05
-0.00396504
-5.93278e-05
-3.72749e-05
-1.3282e-06
8.08679e-05
0.00015899
-8.44631e-05
-4.07652e-05
-7.39751e-05
-0.000109499
-0.000120946
0.00259999
0.000462394
0.000175307
-5.29897e-05
-0.00348927
0.00440609
0.000290968
-0.0052472
0.00668148
0.000323518
-0.00753464
0.00969778
0.000205158
-0.0101384
-0.000685712
0.0129546
0.0135917
0.000178913
-0.0103235
5.20175e-05
0.000398888
0.000116723
-3.81661e-06
0.000351641
0.000777496
0.00125032
0.000643928
0.0020639
0.00124286
0.00389237
0.00287588
0.012077
-0.0352856
0.00109882
-0.00166533
0.0125256
0.00571028
0.0176092
0.00674241
0.0114331
-0.00872593
0.00307531
0.00181954
-0.0111023
-0.000129617
5.10181e-05
0.000177298
-1.20784e-07
-1.31141e-07
-0.000133715
0.000197002
0.000207088
-9.37339e-05
-0.000126345
-3.05415e-08
-4.10641e-08
-9.26579e-05
-6.80422e-05
-6.19312e-05
-0.00918047
0.0102232
-1.33323e-08
-0.0124501
0.0124499
-0.0102234
6.19921e-05
0.00918119
0.00011088
-4.25162e-05
-0.000348632
4.10752e-05
-0.000174153
-0.00026891
-0.00066271
0.000137104
0.0130442
-0.014502
0.000106043
-1.04921e-07
-5.34186e-08
-4.41466e-08
-9.29195e-08
-0.00654065
0.00119614
0.000109622
0.000252333
-0.000370905
-0.00883943
0.0022699
0.000441513
0.00728274
0.0071667
-0.0137654
0.00861048
-0.000710371
-0.00123722
-2.95064e-07
0.00422822
0.0111287
-0.000120967
8.53245e-07
0.000182245
0.000220774
0.000121216
-0.00486347
-0.00839194
-0.00835368
6.23161e-08
0.00015553
8.765e-07
0.000642976
7.85811e-07
1.8643e-07
1.27732e-08
-0.00011094
0.000260755
0.000414057
-0.000137201
-0.000106426
0.000269071
4.2738e-05
0.000796115
0.000468617
0.000232089
2.48936e-05
-4.05113e-07
0.000216562
0.000458028
-0.000129472
-0.00305704
0.000790567
0.00130533
-7.07959e-05
0.00917225
5.81882e-05
0.000135289
-2.7506e-05
0.00130542
0.00220205
0.00221011
0.00422129
0.0123813
0.00186251
0.00412195
0.0124039
0.00297817
0.000837792
-0.000182804
0.000686016
0.00135772
0.0031277
0.000664995
-0.000112185
-0.00399983
-0.000102385
-9.35444e-05
-0.000147049
-5.89659e-05
5.44759e-05
0.000175583
0.00034882
-0.000194597
-0.00135559
2.37162e-05
6.68369e-06
-4.22318e-06
-0.00196105
3.7236e-05
-0.00184897
-0.000174063
7.72894e-05
0.000178481
-3.69688e-05
-6.22431e-05
-6.63383e-08
5.35366e-05
-0.000236484
-0.000253082
9.31494e-05
0.000490899
-0.000349737
-2.75411e-05
-0.000143683
0.000134667
6.56766e-05
0.000130126
-9.6528e-05
0.000124773
-0.00626789
-0.000323734
0.000399152
-0.00149409
-0.00119639
0.000171401
7.98746e-05
-1.30971e-08
-3.61347e-05
1.59988e-08
9.23758e-08
1.45187e-07
-0.00029109
-0.000405066
-0.000175724
-0.000261666
-0.00146711
-0.00138554
-0.00144469
-0.0133121
-0.010321
0.00180306
-2.06847e-07
-0.00180324
0.0186525
0.00835271
-0.000236339
-0.000144143
-1.55093e-06
7.44888e-06
0.00116952
-0.00152642
0.00188244
-0.00151355
0.000128249
0.00111054
-0.000335972
0.00144461
-0.000715508
-0.000759543
-0.000598915
-0.000603039
-0.000695686
-0.000602985
-0.000608637
-0.000775939
-0.000722271
-0.000629947
-0.000202086
0.000197763
-0.00026563
-0.000723677
0.000178733
-2.77843e-05
-0.000574324
2.57366e-08
0.000574304
-0.000178777
0.000723689
0.000202074
0.000265623
-0.000197777
0.000149189
-3.6191e-05
0.000630157
0.000722318
0.000775943
0.000608654
0.000603026
-0.000321586
0.000165062
0.000139342
0.000335886
-0.000330229
0.000603152
0.000598908
0.000759402
0.000715508
0.000603645
-5.75474e-05
0.000147988
6.56727e-05
0.000202107
0.000749802
-2.55889e-07
0.000247007
-0.000201984
-6.57132e-05
-0.000147815
5.77731e-05
-0.00024154
6.94259e-05
0.000852595
1.41934e-05
0.00162619
-0.00162631
-1.71605e-07
-0.00208068
-7.51302e-06
-0.00245967
6.34378e-05
0.00184898
0.00188963
0.000174092
-0.00255926
-0.00172999
0.00121171
-0.000116526
-0.00110455
-0.00160225
6.88192e-05
9.10189e-05
0.000100569
9.0648e-05
2.10819e-05
-0.000175991
-0.000321103
0.00422858
-0.00332805
-0.0113998
0.00626477
0.011476
0.00431304
0.0164656
0.00380969
0.00674279
0.0176099
0.00571089
0.0125259
0.00861078
0.00600009
-0.0137662
0.00464863
-0.000371175
-0.00155867
0.0149638
-0.00451937
0.00751285
4.97691e-08
-0.00751334
0.00451963
-0.0149633
-0.00600003
0.0137661
-0.0125254
-0.00861054
-0.00571067
-0.0176095
-0.0067422
-0.0038095
0.0107396
0.0116706
0.0113998
-0.0114756
-0.00431274
-0.0062649
-0.0177938
-0.00759253
-0.0103211
-0.0147789
-0.00641311
0.0101018
-0.0129413
-0.00184893
0.0205985
-0.0205983
0.0129414
-0.010102
0.00641243
0.0147778
0.0103212
0.0133129
0.00759222
0.0177929
0.0213566
0.0210034
-0.00385333
0.0186525
0.00695854
0.00835265
0.00651101
-0.000155113
1.23345e-06
0.000155537
-1.65176e-07
0.011129
-0.0111289
0.000456324
-0.00651121
-0.00835286
-0.00695903
-0.0186527
-0.0210039
-0.0213559
-0.0173105
-0.0177691
-0.01946
-0.0174947
-0.0177184
-0.0210924
-0.0203349
-0.0177492
-0.00587536
0.00166652
-0.00109901
0.0135204
-0.0135926
0.0103233
-0.00969764
0.0075355
-0.00668123
0.00524721
-0.00440604
0.00348969
-0.00277172
0.00223456
-0.00167196
0.00141367
-0.00100846
-0.000946893
-0.000805423
-0.000724545
-0.0011106
-0.0011698
-7.59149e-06
0.00152642
-0.000852675
-6.95107e-05
0.000241634
-0.00144464
0.000172701
-6.8798e-05
-9.09811e-05
-0.00010049
-9.06296e-05
-2.07717e-05
0.000176042
0.000321018
-0.00422857
0.00332795
0.00116445
0.00319395
-0.000825232
0.00787757
-0.00787747
-0.00319387
-0.00116442
0.000825302
0.00246997
-0.011671
-0.0107392
0.0114333
-0.0128854
-0.00348345
0.000317083
0.00149393
-0.00257317
0.00236058
0.0028728
3.78704e-08
-0.00287262
0.0034834
-0.00464857
0.00883874
0.000370716
0.00991101
-0.00991136
-0.00883906
-1.11858e-07
0.00625473
0.00654029
-0.00654051
0.00119617
-0.00625464
0.000441552
3.4759e-07
0.00624493
0.000710111
-0.00716661
0.00192318
-3.5747e-07
-5.07325e-07
1.50946e-08
0.00848351
-0.00651285
-0.0194423
0.00422852
-0.0158601
0.0189964
-0.0175143
0.0152752
-0.0152757
-0.00162336
-0.0133051
-0.00100164
0.0120853
-0.00988459
-0.000347202
0.00860172
-0.00699937
-9.63068e-05
0.00586313
-0.00472844
6.71418e-06
0.00381694
-0.00306026
6.03889e-05
0.00237884
-0.00192191
0.000101899
0.00144572
-0.00121095
0.000159069
0.000942966
0.000382249
0.000791659
-0.000791728
2.7753e-05
0.000161306
-0.000380424
-0.000345091
1.64792e-08
0.000240113
-0.00024011
-0.000263804
1.33395e-08
0.000271319
-0.000271323
-0.000211295
-1.83394e-08
0.000512728
-0.000512837
1.84888e-05
-2.12965e-07
-0.000134437
0.000134883
-9.68892e-05
0.000482885
0.000236821
0.000256833
0.000134819
0.000539141
0.000196101
-0.000459139
-8.96323e-05
0.000349763
-0.000490879
0.000477483
0.000236478
0.000253135
7.9655e-05
0.000501936
8.67045e-05
-0.000393236
-6.83761e-05
7.98947e-05
-0.00038052
0.000495653
5.49607e-05
5.40404e-05
-0.000120641
-0.000168403
-0.000219266
-0.000265052
-0.000270651
-0.000165155
-4.27606e-06
0.0004281
0.0132403
0.0111035
0.010547
0.0147774
-0.0154585
0.0117467
-0.0111703
0.00861219
-0.00764581
0.00600943
-0.00500956
0.00400033
-0.00313982
0.00255923
-0.0018899
0.00160216
-0.000128179
0.00151364
-0.00188254
0.00208087
-0.00272283
-4.48139e-08
0.00272265
-0.00345861
0.00310459
-0.00243775
0.00302653
-0.0039651
9.37412e-05
-0.00383798
0.000236051
0.00313935
-0.000181477
0.00202345
0.00233856
0.000261797
-0.00305729
-0.00336262
0.00259952
-0.00019182
-0.00196123
0.000193199
0.00138893
-0.00122125
0.00014389
0.000724469
-0.000100008
-0.000139357
0.000330176
-0.000495682
-0.00019608
-0.000539142
-0.00013477
-0.000256771
-0.000236708
-0.000482745
9.65086e-05
-0.000130154
-1.84286e-05
0.000220848
-2.74046e-05
-0.000349755
-3.72144e-06
8.96242e-05
0.000490876
0.000459153
0.000380502
-7.99281e-05
-8.17865e-05
0.000211314
-1.00721e-08
-1.56012e-08
-1.48624e-08
2.85482e-08
5.10575e-08
5.62607e-08
9.91174e-08
3.9768e-08
2.64414e-08
7.95968e-10
2.46721e-07
0.00437954
-0.000171412
-0.00750283
0.00123706
-0.0164649
-0.00728262
0.0128849
-0.000317105
-0.00149389
-0.00119635
-0.000109772
0.000327509
-0.00125853
-0.000576235
-0.00455055
-0.00438996
0.010015
0.0140134
-0.0208429
0.000167314
0.0174776
-0.0147208
0.0169827
0.000219428
-0.00412123
-0.0124052
-0.0123804
-0.0120756
-0.00718502
-0.00743175
-0.00123646
-0.00287788
-0.00204002
-0.00389296
-0.0020628
-0.00124225
-0.000626195
-0.000414935
-0.000642756
-0.0001164
-0.000399056
-5.74974e-05
-0.012954
-0.0114245
0.00882929
0.00786775
0.000622408
-0.0102743
0.000397871
0.000129446
-0.00236049
0.00257337
-0.00247002
-0.000174696
0.00610762
-0.000441989
-0.00227008
0.00155881
-0.00528119
-0.00117027
-0.0053358
1.39691e-07
3.06505e-07
9.75453e-07
3.24787e-07
-2.5093e-07
-3.25736e-07
-2.69903e-07
-5.39222e-07
-2.42168e-07
6.03966e-09
5.18211e-08
-0.000194452
0.000194443
0.000272432
-1.08129e-05
-8.47008e-05
-0.000162628
-0.000269173
-0.000351366
3.93658e-06
-0.0012493
-0.000776973
-0.00046215
-0.000174665
5.31409e-05
0.000129864
-0.00412228
-0.00375402
0.00305706
0.00266936
0.00025894
-0.00324668
0.00398318
0.000350354
-0.00498146
0.00570569
0.000461777
-0.00732719
-0.000309717
-0.00835738
0.00652537
0.000507816
-0.00917104
0.0101373
0.000685215
0.00013361
-5.10717e-05
-0.00017739
-0.000405561
-0.00573846
0.00457385
0.000378229
-0.00626854
0.00729571
-0.000323975
7.15354e-05
-0.00220881
-0.00422017
-0.00181907
-0.00307465
0.00872635
-0.011433
0.0352853
-0.00186285
0.00908453
-0.00297833
-0.00839144
-0.00486355
-0.00151288
-0.00312744
-0.000837027
-0.000134543
-0.00220039
-0.00130415
-0.0013043
-0.0007897
-0.00045765
-0.000216333
-0.000230139
-4.32545e-05
7.35604e-05
0.000121141
-0.00259977
-0.00233898
0.00196125
0.00172973
0.000181412
-0.00202348
-0.000261822
-0.000170133
-0.000195869
-0.000344489
4.80244e-05
0.000275798
0.00336216
-0.000230272
-0.000142161
0.00472814
-7.04e-06
-0.00586389
9.6965e-05
0.00699903
-2.35037e-05
-0.0086025
0.00034821
0.00988395
-5.18659e-05
-0.0120858
0.00100189
0.0133049
-0.000179321
-0.0162613
0.0028503
0.0181586
0.00396566
0.00126894
-0.000252581
0.000252584
-0.0181592
-0.00284961
0.0162609
-0.00126921
0.0175144
-0.00848329
-0.0189967
-8.56979e-08
0.0158593
-0.00422851
0.0194434
0.00587571
0.00651279
0.00117017
0.00528154
0.00226988
-0.00192341
-0.00624534
0.00716723
-0.000710255
0.00728279
-0.00610734
-3.58915e-07
7.5293e-08
-9.26701e-09
-4.3742e-08
2.58707e-08
6.21285e-08
0.00162402
-0.0141258
0.0120828
-0.0103819
0.0088242
-0.00882474
-6.81209e-05
0.00728132
7.24789e-05
-0.00611334
3.5886e-05
0.00487115
5.52958e-05
-0.00403996
7.3618e-05
0.00311335
4.15393e-05
-0.00256625
0.000101116
0.00191683
3.85646e-05
-0.0016018
0.000157371
0.00115576
8.67805e-05
-0.00100751
-1.29518e-08
0.00100744
-0.000382222
-0.000943025
-0.000159087
0.00121085
1.69187e-05
-0.00144579
-0.000101848
0.0019219
1.13187e-05
-0.00237906
-6.03019e-05
0.00306006
4.19766e-06
-0.00381737
-6.40367e-06
-5.53138e-05
0.00403982
1.78685e-08
-0.00311358
0.00256629
-0.00191692
0.00160177
-6.67115e-08
-0.00115581
-8.68453e-05
-2.48525e-05
-6.71599e-05
-3.86488e-05
-0.000104368
-0.000162515
-0.000235385
-0.000316888
-0.000366651
-0.000318776
-0.000374027
0.000374149
0.00533568
0.00743202
0.00123608
0.000317664
0.0141257
-4.04256e-05
-0.0120833
-0.000403104
0.0103812
7.00192e-05
0.000207262
2.03704e-07
0.000403792
5.32699e-08
-5.87836e-08
6.862e-05
-0.00728152
0.00611321
-0.0048714
-3.58525e-05
-4.23668e-08
-8.59173e-08
-2.66718e-08
-7.36423e-05
-2.61617e-08
-0.000101019
-4.49457e-08
9.43009e-09
-0.000157261
-1.73638e-08
1.66372e-08
0.000380429
-0.000161317
0.000171745
-0.000232864
0.000232835
-0.000171743
0.000517031
-6.82491e-05
0.000214773
-0.000498093
-0.000106126
1.07455e-05
-0.000447531
0.000501271
0.000186548
0.000549081
0.000144004
0.000255609
0.000495697
0.000244688
-8.37346e-05
-0.000186178
-6.34646e-05
5.08589e-08
-3.40839e-08
6.34069e-05
-0.000517076
-0.000214768
6.81986e-05
-0.000177889
0.000106052
0.000447507
-1.07535e-05
-7.22994e-05
6.83836e-05
0.000393258
-8.66822e-05
-0.000501873
-7.96489e-05
-0.000253129
0.000186378
0.000186179
-1.57825e-08
8.53791e-05
0.000177845
8.18279e-06
3.60293e-05
0.000253608
-0.000186368
-9.31304e-05
-7.35939e-09
-3.60257e-05
-8.53916e-05
0.000345125
-8.27297e-06
2.48282e-05
-1.99126e-08
1.70448e-08
2.04423e-08
8.30869e-08
-6.89467e-08
9.86616e-08
-0.000196867
4.07656e-05
0.000197078
4.61122e-06
0.000178934
-0.0135207
-0.000427538
0.0129542
-0.00068548
-0.00883033
0.000308908
0.00732715
-0.000461535
-0.00570677
-0.00861201
0.000399877
0.00727776
-0.00918064
9.52882e-05
-0.00844757
0.0105849
-0.013044
-3.08176e-05
-0.0118582
0.000359455
0.0111694
-0.0117458
-0.00786983
0.0102744
-0.000621825
0.0154579
-0.000218643
0.0147211
-0.0174767
-0.000167137
-0.0169836
-0.0147769
-0.010548
-0.000398306
0.0114234
-0.011103
-0.0132416
0.00307478
-0.000327589
0.00125829
-0.0323438
0.000576689
-0.000199759
0.00455014
-0.0343549
0.0043902
-0.0140133
-0.0100155
0.00486302
5.16006e-07
0.00012096
0.000643035
0.0230855
-1.41038e-08
0.0192747
-0.0192744
0.000220571
-0.0156371
3.12026e-05
0.0130448
-0.0105848
0.0118566
-0.000359489
0.0084464
-9.55231e-05
0.00918119
-0.00727748
-0.000400348
0.0058141
-0.000113277
0.00616655
-0.00479354
-0.000319863
-0.000795499
-0.000468231
-0.000231811
-2.47885e-05
4.6593e-07
-2.3253e-05
9.34912e-05
8.48486e-05
0.00010885
-0.00158375
-0.0013893
0.00122116
0.00110443
0.000116369
-0.00121187
-0.000193312
-0.00013408
-9.54984e-05
-0.000143786
3.53892e-05
0.000106652
0.000275928
-0.001467
0.000374065
0.000236789
0.000142222
0.000169292
0.000376549
0.000696034
-0.00138547
0.000163168
0.000102519
0.000109598
0.000112434
9.85658e-05
2.81022e-05
-0.000269127
-0.00135759
-0.000685711
-0.000414001
-0.00066525
-4.29959e-05
0.000110913
0.000136715
-0.0111674
0.0124501
3.81746e-08
0.0102233
-0.0102231
6.20574e-05
0.00847999
-3.80325e-08
0.00686215
-0.00686209
3.88624e-05
-0.0049588
-9.39955e-05
0.00396523
-0.00302656
0.00383744
-0.000235944
4.04809e-05
-0.000349024
-0.000260683
-0.000158981
-0.000175639
7.42867e-05
5.92814e-05
-0.00310479
-6.35626e-05
0.00245976
-0.00184922
0.00243753
-0.000173992
9.36416e-05
-5.44584e-05
-8.0751e-05
1.52836e-06
5.90059e-05
0.000147135
0.000371915
0.00023626
0.000144784
0.000643335
-0.000163486
0.000269217
-5.56802e-07
-0.000265328
0.000161849
-0.000642596
-0.000134681
-0.000143387
-3.90939e-07
-6.51248e-08
3.72216e-05
7.5189e-06
3.01293e-05
2.22659e-05
0.000124181
0.00138793
-0.000130385
3.39388e-05
0.000191875
0.0021673
-0.000175803
-0.000101707
-4.1533e-05
0.000101652
0.000142166
0.0001822
0.000270907
0.000165432
5.188e-05
-0.0103245
0.000205115
0.00917053
-0.000508094
-0.0065256
0.000405733
0.00498128
-0.000350239
-0.00398426
-0.00600875
0.000320181
0.00479377
-0.00616629
0.000113184
-0.00581473
0.00760585
-6.21387e-05
-0.00847983
-0.000110752
-1.79695e-07
-4.22934e-09
-6.80103e-07
0.000182771
-0.000182062
-0.000120608
-0.000642944
0.0208426
-0.0230856
-0.000131002
0.000109748
-0.000133509
-0.000129211
5.1506e-05
-2.45411e-08
9.37827e-05
-0.000207036
-6.98014e-05
-0.00018203
-7.23246e-05
6.67387e-05
7.02368e-08
1.34442e-08
-2.40175e-09
-2.80792e-08
-2.37229e-08
2.84608e-09
5.4944e-09
-5.40401e-05
0.00012067
0.000168397
0.000219312
0.000265078
6.62553e-06
-0.00524753
0.000291203
0.00412187
-0.000275912
0.00375317
0.000344271
0.00324653
-0.000258978
-0.00266986
-0.00400024
0.0050087
-0.000112569
-0.000130105
-5.40487e-05
0.00026868
0.000414248
0.000625257
0.000366754
0.000316876
0.000235541
0.00016266
0.000162423
8.45944e-05
0.000104438
3.92194e-05
1.06247e-05
-0.000272527
-0.000237038
-0.000142384
0.00100839
0.000130415
0.000946826
-0.000106695
-0.000165078
0.00138549
-5.49561e-05
9.55282e-05
0.000134105
0.000170177
0.00019601
0.000177571
-9.36724e-05
-6.67655e-05
-0.000378468
-0.00505233
-0.00457394
0.00573777
0.00626819
0.00668076
0.000323811
-0.00753549
2.33131e-05
0.00969732
0.00011456
0.000398213
0.0135906
0.00203785
0.00109908
-0.0352863
0.0203362
0.0177522
-0.00166738
0.00718314
0.0120758
0.0210932
0.0177191
-0.00872625
0.0174937
0.0194654
0.0177725
-0.00908444
0.0173108
0.0124037
0.0123819
0.00181936
0.0038914
0.00288186
0.00206296
0.00123048
0.00124899
0.000635191
-5.42905e-06
-0.000125299
-7.18073e-05
-0.00729635
0.00835552
5.70892e-05
-0.0101387
0.00421989
0.0022082
0.00130389
0.000789401
0.000776412
0.00034709
0.000461736
0.0002302