/*--------------------------------*- C++ -*----------------------------------*\
| =========                 |                                                 |
| \\      /  F ield         | OpenFOAM: The Open Source CFD Toolbox           |
|  \\    /   O peration     | Version:  2306                                  |
|   \\  /    A nd           | Website:  www.openfoam.com                      |
|    \\/     M anipulation  |                                                 |
\*---------------------------------------------------------------------------*/
FoamFile
{
    version     2.0;
    format      ascii;
    arch        "LSB;label=32;scalar=64";
    class       volScalarField;
    location    "1.8";
    object      gradTz;
}
// * * * * * * * * * * * * * * * * * * * * * * * * * * * * * * * * * * * * * //

dimensions      [0 -1 0 1 0 0 0];

internalField   nonuniform List<scalar> 
2658
(
-0.0741445
-0.0714357
-0.0520226
-0.0472264
-0.0589729
-0.060374
-0.0538391
-0.051964
-0.0471864
-0.0601951
-0.060662
-0.0486016
-0.0653789
-0.0612726
-0.0632166
-0.0649902
-0.0626328
-0.0648426
-0.0631442
-0.0604647
-0.0642968
-0.0579159
-0.0661546
-0.0502976
-0.0788816
-0.0641836
-0.0574607
-0.0675406
-0.0690743
-0.0569747
-0.0690737
-0.0574607
-0.064183
-0.0661538
-0.0788815
-0.0502969
-0.0642811
-0.0906729
-0.0579151
-0.0642984
-0.0604655
-0.0631443
-0.064842
-0.0934892
-0.0587744
-0.0581209
-0.0606623
-0.093414
-0.0649912
-0.063217
-0.061272
-0.0653795
-0.0585362
-0.0939979
-0.0654369
-0.0633056
-0.09342
-0.0583904
-0.0507152
-0.0649097
-0.093421
-0.0633063
-0.0654375
-0.0939982
-0.0601389
-0.0486988
-0.0605029
-0.0541649
-0.0597129
-0.0597116
-0.0479332
-0.0528005
-0.04055
-0.0461751
-0.0351297
-0.0456785
-0.0460446
-0.035082
-0.0396068
-0.0388302
-0.0460454
-0.0405326
-0.0525313
-0.0540114
-0.0444658
-0.0329225
-0.0234399
-0.0159468
-0.0103759
-0.00650222
-0.0040332
-0.00350882
-0.00290584
-0.00241959
-0.00257179
-0.00281145
-0.00252312
-0.00379981
-0.0025247
-0.00255918
-0.00382005
-0.00259145
-0.00283013
-0.00311344
-0.0026358
-0.00289589
-0.0020818
-0.00361056
-0.00225635
-0.00336951
-0.00312107
-0.0025538
-0.00349613
-0.0025537
-0.00312109
-0.00336953
-0.00263588
-0.0028959
-0.00283015
-0.00311347
-0.00259138
-0.00381986
-0.00255916
-0.00252468
-0.00252228
-0.00253436
-0.00241951
-0.00281155
-0.00252312
-0.00257186
-0.00381078
-0.00256376
-0.00307146
-0.00254559
-0.00333458
-0.00238201
-0.00231547
-0.0027765
-0.00238482
-0.0023849
-0.00231539
-0.00238201
-0.00262059
-0.00276625
-0.00347397
-0.00276496
-0.00324298
-0.00316164
-0.00222815
-0.00223923
-0.00211231
-0.00300417
-0.00297
-0.00188156
-0.00255104
-0.0024175
-0.0021935
-0.00240642
-0.00225656
-0.0023599
-0.00243248
-0.00230918
-0.00243399
-0.00235887
-0.00224413
-0.00239393
-0.00218771
-0.00251029
-0.00380291
-0.00334942
-0.00463637
-0.0060641
-0.00775904
-0.00985139
-0.0125209
-0.0156609
-0.0194795
-0.0238874
-0.0289939
-0.0348196
-0.0412167
-0.0484014
-0.0560092
-0.0625188
-0.0605151
-0.0593932
-0.0599718
-0.0601944
-0.0589722
-0.0472256
-0.0603746
-0.060502
-0.0486988
-0.060139
-0.0486017
-0.0791426
-0.0444657
-0.0329223
-0.0234399
-0.0159467
-0.0103758
-0.00650211
-0.00403314
-0.00350885
-0.00290585
-0.00199311
-0.0021629
-0.00351034
-0.00222203
-0.00222204
-0.00216292
-0.0019931
-0.00351036
-0.0020615
-0.00253432
-0.00252229
-0.00280563
-0.00243649
-0.00291132
-0.00200665
-0.00205615
-0.00297109
-0.00350758
-0.00350216
-0.00358569
-0.00350212
-0.00291131
-0.00208177
-0.0022509
-0.00361057
-0.00238947
-0.00238947
-0.00225088
-0.00305805
-0.00219038
-0.00220898
-0.00220895
-0.00350609
-0.00219036
-0.00283721
-0.00265802
-0.00260773
-0.00241737
-0.00274812
-0.00262031
-0.00272988
-0.00381631
-0.0032371
-0.00237248
-0.00330853
-0.0024103
-0.00207984
-0.00254555
-0.00278405
-0.00425601
-0.00490859
-0.00490858
-0.00359852
-0.00639438
-0.00453797
-0.00811452
-0.0103877
-0.0073355
-0.0130515
-0.0164346
-0.0115245
-0.0203074
-0.0249766
-0.0173597
-0.0302542
-0.0362827
-0.0249947
-0.0430649
-0.0503464
-0.0343673
-0.0582218
-0.0676982
-0.0467385
-0.072099
-0.0498535
-0.0639241
-0.0639238
-0.0675396
-0.0679059
-0.0608598
-0.0564195
-0.081209
-0.0539554
-0.0539559
-0.0543834
-0.0813214
-0.0550897
-0.0550899
-0.0523189
-0.0802094
-0.0666354
-0.0666352
-0.0768792
-0.1089
-0.0768795
-0.0781186
-0.107647
-0.0778547
-0.0904963
-0.0784423
-0.0766498
-0.0634249
-0.0740027
-0.0862593
-0.0803852
-0.0523189
-0.0499624
-0.0791665
-0.0636934
-0.0781463
-0.10765
-0.0779046
-0.0864255
-0.0787669
-0.0796002
-0.0787665
-0.0791665
-0.0634247
-0.0766501
-0.0778526
-0.107648
-0.0781178
-0.0740037
-0.0862594
-0.0864255
-0.0779078
-0.107648
-0.0781473
-0.0636932
-0.0739335
-0.0773882
-0.108981
-0.0769827
-0.0668465
-0.0803238
-0.0522923
-0.0667036
-0.0757682
-0.0766441
-0.0471416
-0.0350311
-0.0249926
-0.0170255
-0.0110894
-0.00695323
-0.00431346
-0.0042325
-0.00452213
-0.00446831
-0.0044806
-0.00450766
-0.00576852
-0.00741622
-0.00935895
-0.0119727
-0.0148935
-0.0186453
-0.0227373
-0.0277963
-0.0331575
-0.039607
-0.0460437
-0.0540119
-0.0471857
-0.0519641
-0.0538385
-0.0528017
-0.0459756
-0.0358485
-0.0459761
-0.0389826
-0.0395243
-0.0383882
-0.0325561
-0.0332351
-0.0249137
-0.0270551
-0.0248737
-0.0331583
-0.0296185
-0.0330566
-0.032923
-0.0253934
-0.0275136
-0.027491
-0.0330972
-0.0296371
-0.0391185
-0.0357268
-0.0456926
-0.0531063
-0.0478129
-0.0599717
-0.054217
-0.0581212
-0.0934142
-0.0739337
-0.066703
-0.0522921
-0.0767974
-0.0572871
-0.0495885
-0.0465284
-0.0346662
-0.024729
-0.0168409
-0.010964
-0.00687277
-0.00426433
-0.00350758
-0.00297107
-0.00205615
-0.00350606
-0.00200661
-0.0024365
-0.00280564
-0.00404727
-0.00319848
-0.00318438
-0.00316895
-0.00322535
-0.00300289
-0.0022712
-0.00340936
-0.00451889
-0.00421763
-0.00588142
-0.00552798
-0.00438855
-0.00416436
-0.00448175
-0.00326845
-0.00328319
-0.00326507
-0.0031524
-0.00311875
-0.00455374
-0.00455189
-0.00359327
-0.00449617
-0.00729155
-0.00741184
-0.0073227
-0.0116706
-0.0119258
-0.00947586
-0.0058105
-0.00564156
-0.00571364
-0.00574081
-0.00734904
-0.00734702
-0.00533693
-0.00571517
-0.00426859
-0.00450388
-0.00729259
-0.01177
-0.0117561
-0.0181866
-0.0184362
-0.0179297
-0.0263648
-0.0272428
-0.0225571
-0.0149432
-0.0145396
-0.0148237
-0.014802
-0.0184756
-0.0184121
-0.0136383
-0.0147994
-0.0118419
-0.00866594
-0.00928782
-0.00694098
-0.00930637
-0.011868
-0.00868599
-0.00929975
-0.0074012
-0.00534873
-0.00597057
-0.00572247
-0.00639437
-0.00351947
-0.00512099
-0.00292786
-0.00387487
-0.00220735
-0.00294757
-0.00351921
-0.00363382
-0.00342829
-0.00353541
-0.00353283
-0.00403322
-0.00368145
-0.00314388
-0.00318421
-0.00457342
-0.00446231
-0.00589413
-0.00563255
-0.00725732
-0.0117079
-0.0181383
-0.0182326
-0.026954
-0.0268545
-0.0378924
-0.0385269
-0.0370649
-0.0496917
-0.0525267
-0.044855
-0.0325469
-0.0318497
-0.0330964
-0.0329223
-0.0391185
-0.0388297
-0.0296187
-0.0330562
-0.0273793
-0.0205655
-0.0226216
-0.0172183
-0.0225866
-0.0275134
-0.0205917
-0.0226555
-0.0185019
-0.0136641
-0.0151347
-0.00965512
-0.00922876
-0.0103875
-0.00574644
-0.00811432
-0.00453795
-0.00462111
-0.00792164
-0.0100861
-0.0126985
-0.0126983
-0.00918479
-0.0159051
-0.0117198
-0.019701
-0.014112
-0.0241525
-0.0176335
-0.0292816
-0.0207597
-0.0350681
-0.0253346
-0.0416079
-0.0291914
-0.0485281
-0.0347057
-0.0566661
-0.039193
-0.0629369
-0.04573
-0.0751526
-0.060824
-0.0751526
-0.0498535
-0.0720978
-0.0467382
-0.0676982
-0.0391554
-0.058221
-0.034367
-0.0503461
-0.0293507
-0.0430644
-0.0249948
-0.0362828
-0.0208829
-0.030254
-0.0173594
-0.0249767
-0.0141813
-0.0203068
-0.0115243
-0.0164347
-0.00920566
-0.0130511
-0.0073354
-0.0074652
-0.00951443
-0.005983
-0.00386335
-0.00296791
-0.00280934
-0.00325745
-0.00473088
-0.00739812
-0.0116394
-0.01778
-0.0260467
-0.0364611
-0.0486072
-0.0598393
-0.0685898
-0.0675831
-0.067583
-0.0627618
-0.0732092
-0.0585067
-0.0514888
-0.0709751
-0.0496185
-0.0592284
-0.0542411
-0.0556258
-0.0540285
-0.0457298
-0.062936
-0.0391925
-0.0566661
-0.0459919
-0.047355
-0.0351493
-0.0291908
-0.0416082
-0.048527
-0.0347062
-0.0425597
-0.0311054
-0.0253345
-0.0350673
-0.0207595
-0.0292822
-0.0242332
-0.0250637
-0.0170828
-0.0111446
-0.00918467
-0.0159046
-0.0197014
-0.0241518
-0.0176331
-0.0216891
-0.0144489
-0.0117198
-0.00735737
-0.004593
-0.00439411
-0.00359854
-0.0063189
-0.00427155
-0.00631891
-0.0046211
-0.0079216
-0.00577045
-0.0100865
-0.00746526
-0.00922881
-0.00701444
-0.0057703
-0.00676785
-0.00572246
-0.00351923
-0.00387486
-0.0029279
-0.00512111
-0.00294764
-0.00425602
-0.00237244
-0.00278404
-0.00302055
-0.0025456
-0.00207984
-0.00241028
-0.00251028
-0.0033086
-0.00259201
-0.00243706
-0.00286537
-0.00262027
-0.00260766
-0.00274814
-0.00241714
-0.00281971
-0.00263657
-0.00270672
-0.00263655
-0.00241996
-0.00379974
-0.00281976
-0.00283724
-0.00286539
-0.00225635
-0.00243705
-0.002592
-0.00284016
-0.00259509
-0.00241049
-0.00282658
-0.00274663
-0.00261429
-0.0027997
-0.00214531
-0.00287265
-0.00286682
-0.00387547
-0.00264412
-0.00303486
-0.00351825
-0.00355688
-0.00309259
-0.00458672
-0.00734805
-0.0117103
-0.0179729
-0.0179836
-0.0263896
-0.0369733
-0.049681
-0.0738921
-0.0680734
-0.102462
-0.0608595
-0.0679072
-0.0932278
-0.0777481
-0.0777462
-0.0932282
-0.0989465
-0.0602667
-0.0794577
-0.0781176
-0.0796578
-0.0508197
-0.0647984
-0.0732366
-0.0787269
-0.108063
-0.078916
-0.0915282
-0.0761859
-0.085232
-0.0780229
-0.0802919
-0.0805436
-0.0862949
-0.103288
-0.0805462
-0.0989467
-0.0794591
-0.060266
-0.053383
-0.0796575
-0.0647977
-0.0508194
-0.051619
-0.0803239
-0.0668478
-0.0769815
-0.10898
-0.0773892
-0.0861056
-0.0799378
-0.0802919
-0.0811588
-0.0815172
-0.0533826
-0.0796976
-0.0793248
-0.0855252
-0.0799394
-0.0777893
-0.0861055
-0.0769215
-0.0803854
-0.0499625
-0.0767974
-0.0572871
-0.0542168
-0.057629
-0.051666
-0.0380626
-0.0440995
-0.0461145
-0.0456916
-0.0531072
-0.0525307
-0.0405327
-0.0460452
-0.035726
-0.0442279
-0.0379934
-0.0268418
-0.031902
-0.022012
-0.0145288
-0.00918323
-0.00919653
-0.0119134
-0.0110649
-0.00962075
-0.00903432
-0.00681865
-0.00943403
-0.0119545
-0.0109324
-0.0149468
-0.0144433
-0.0117155
-0.0108998
-0.0181976
-0.0168768
-0.0227894
-0.0221625
-0.0168436
-0.0270549
-0.0249135
-0.0332353
-0.0325559
-0.0248737
-0.0383879
-0.0351295
-0.0461756
-0.0456781
-0.0350821
-0.0462798
-0.0517786
-0.0714028
-0.0710391
-0.0626343
-0.0574609
-0.050961
-0.0610827
-0.0522537
-0.0520225
-0.0382488
-0.0270474
-0.0182976
-0.0118432
-0.00738456
-0.00725939
-0.00924188
-0.00867384
-0.00934519
-0.00701364
-0.00934563
-0.011877
-0.0112135
-0.014839
-0.0148385
-0.0118774
-0.0109223
-0.00685794
-0.00428536
-0.00372078
-0.00341547
-0.00346071
-0.0033043
-0.00276446
-0.00330459
-0.00462632
-0.00436957
-0.00579371
-0.00579321
-0.0046267
-0.00372304
-0.00445183
-0.00279182
-0.00279162
-0.00237977
-0.00261559
-0.00445196
-0.00340946
-0.00227104
-0.00300291
-0.00438849
-0.00421779
-0.00552837
-0.00588115
-0.00451921
-0.00346075
-0.00372079
-0.00363383
-0.0043135
-0.00351948
-0.00463638
-0.00423249
-0.00571369
-0.00534871
-0.00734904
-0.00694119
-0.00928804
-0.00866613
-0.0118419
-0.0119728
-0.0109003
-0.0144439
-0.0149468
-0.010933
-0.0117155
-0.00903484
-0.00943383
-0.00681895
-0.00728513
-0.0067814
-0.0093592
-0.00741621
-0.00734702
-0.00571526
-0.00533707
-0.00576869
-0.00416453
-0.00450768
-0.00448059
-0.00426859
-0.00574087
-0.00446835
-0.00452215
-0.00319848
-0.00342827
-0.00318435
-0.00218472
-0.00316902
-0.00341544
-0.00322527
-0.00203951
-0.00235991
-0.00243248
-0.00403324
-0.00353291
-0.00353544
-0.00359337
-0.00311879
-0.00296796
-0.00386339
-0.00598306
-0.00455366
-0.00732309
-0.00951457
-0.014824
-0.0116712
-0.0179306
-0.0222072
-0.022207
-0.0148237
-0.0117195
-0.0318017
-0.031802
-0.0263655
-0.0370652
-0.0434254
-0.0434241
-0.0555499
-0.0555506
-0.0496915
-0.0627624
-0.073217
-0.0585065
-0.0625209
-0.0475038
-0.0605147
-0.0542411
-0.0587744
-0.0509609
-0.0757684
-0.0766442
-0.0471418
-0.0350312
-0.0249927
-0.0170257
-0.0110895
-0.00695327
-0.0057465
-0.00775908
-0.00689187
-0.00929983
-0.00868625
-0.011868
-0.0111514
-0.0147997
-0.0136383
-0.0184123
-0.0186454
-0.016844
-0.0221629
-0.0227891
-0.0168771
-0.0181975
-0.0186236
-0.0136453
-0.0184559
-0.017284
-0.0226473
-0.0226472
-0.0184562
-0.0136455
-0.018623
-0.0145656
-0.0119229
-0.00746517
-0.00468806
-0.00324839
-0.00372339
-0.00318365
-0.00254937
-0.00188325
-0.00305171
-0.00333424
-0.00254598
-0.00307165
-0.0028667
-0.00256382
-0.00381073
-0.00225641
-0.00240636
-0.00387526
-0.00219345
-0.00241746
-0.00314352
-0.00326837
-0.00328306
-0.003265
-0.0022441
-0.0023589
-0.00404724
-0.00243399
-0.0023093
-0.00209267
-0.00334944
-0.00220737
-0.00380291
-0.00239395
-0.00218761
-0.00315213
-0.0044962
-0.00455192
-0.00581072
-0.0060642
-0.00564174
-0.00740135
-0.00729177
-0.00741246
-0.00947602
-0.00985173
-0.012521
-0.0110648
-0.014824
-0.0136641
-0.0185022
-0.0184757
-0.0172188
-0.022622
-0.0205651
-0.0273799
-0.0277963
-0.0227379
-0.0220121
-0.0220065
-0.022656
-0.0205919
-0.0225872
-0.0168409
-0.0109641
-0.00687285
-0.00426436
-0.00597059
-0.00965514
-0.0151348
-0.0144489
-0.0216892
-0.0227331
-0.0227331
-0.0326045
-0.0296363
-0.0389681
-0.0354108
-0.044525
-0.0405316
-0.0527481
-0.0475033
-0.0458247
-0.0335482
-0.0233718
-0.0155477
-0.00991161
-0.00612475
-0.00535389
-0.00739878
-0.00739833
-0.00739795
-0.00739933
-0.00535381
-0.00612478
-0.00991165
-0.00867394
-0.011955
-0.00924227
-0.00573191
-0.00457347
-0.00738465
-0.0118436
-0.0145658
-0.0152126
-0.00962103
-0.00918361
-0.00919683
-0.0119135
-0.0117563
-0.0119264
-0.0149437
-0.0156614
-0.0194796
-0.0170736
-0.0238879
-0.0289938
-0.0251684
-0.0348209
-0.041217
-0.0354118
-0.0461153
-0.0405317
-0.0527486
-0.0560095
-0.0391558
-0.0484021
-0.0293509
-0.044856
-0.0325473
-0.0225575
-0.0184375
-0.0181872
-0.0268556
-0.0272454
-0.0378942
-0.0385303
-0.0514907
-0.0525246
-0.0709782
-0.0496186
-0.0642809
-0.0906739
-0.0761859
-0.0789153
-0.108062
-0.0787274
-0.0732368
-0.0934899
-0.0592295
-0.0574614
-0.0593943
-0.0465285
-0.0346664
-0.0247292
-0.026374
-0.0369366
-0.0445252
-0.0425596
-0.0311055
-0.0326046
-0.0335483
-0.0246268
-0.0167703
-0.0233719
-0.0155477
-0.0205769
-0.0277583
-0.0274571
-0.0254794
-0.0330595
-0.0330593
-0.0274572
-0.0205768
-0.0277578
-0.0220438
-0.0230414
-0.0181427
-0.0152125
-0.0117061
-0.0333917
-0.0268894
-0.03194
-0.0395238
-0.0389829
-0.0296379
-0.0345297
-0.0463608
-0.0756305
-0.0727841
-0.0543835
-0.0760886
-0.0556259
-0.0540287
-0.0796981
-0.0564199
-0.0815168
-0.0793248
-0.0855247
-0.0852313
-0.0781195
-0.0915283
-0.0780237
-0.0777903
-0.0815663
-0.0791426
-0.05839
-0.0576099
-0.0519678
-0.0442616
-0.0405498
-0.0576095
-0.0714356
-0.0741462
-0.0612086
-0.0711628
-0.0649099
-0.062694
-0.0541647
-0.0383352
-0.0271593
-0.0183941
-0.0220439
-0.0182979
-0.027047
-0.0319401
-0.0296381
-0.033392
-0.0230417
-0.0181386
-0.0117084
-0.00725755
-0.00448183
-0.0045038
-0.00729268
-0.0117701
-0.0145402
-0.0148023
-0.018233
-0.0269546
-0.0318506
-0.0389682
-0.0441001
-0.0442274
-0.0319029
-0.0268421
-0.0379939
-0.038064
-0.0516677
-0.0710412
-0.0576283
-0.0517803
-0.0714031
-0.0610834
-0.0462798
-0.0442622
-0.038249
-0.038155
-0.0522544
-0.0268915
-0.0145291
-0.0148938
-0.00563282
-0.00589434
-0.00368141
-0.00446271
-0.00725991
-0.0117069
-0.0181457
-0.0458247
-0.0381508
-0.0208831
-0.0141814
-0.00920596
-0.00930652
-0.00573179
-0.00728514
-0.0067812
-0.0024105
-0.00259511
-0.00284017
-0.00279973
-0.00266349
-0.00261443
-0.00274671
-0.00282661
-0.00241985
-0.00287264
-0.00214511
-0.00277649
-0.00297419
-0.00237967
-0.00261565
-0.00262147
-0.00305041
-0.0220057
-0.0274908
-0.0251684
-0.0478118
-0.0516189
-0.0760885
-0.0769179
-0.00206147
-0.00202161
-0.0141121
-0.0164768
-0.0107357
-0.0340992
-0.0170731
-0.025393
-0.00689171
-0.0111512
-0.00209272
-0.00218472
-0.00203936
-0.0784421
-0.0904963
-0.0768693
-0.0775568
-0.076868
-0.0585367
-0.0612095
0.00314375
0.00318415
0.00457334
0.00421766
0.0043885
0.00451883
0.00588148
0.00552792
0.00416431
0.00450768
0.00322532
0.00203938
0.00240652
0.00225666
0.00235998
0.00243255
0.00230934
0.00243405
0.00235897
0.00224425
0.00239406
0.00218792
0.00251035
0.00220734
0.00330857
0.00241035
0.00207986
0.00259197
0.00254556
0.00202172
0.00254553
0.00207983
0.00241032
0.00251035
0.0033086
0.00220735
0.00334943
0.00380287
0.00218784
0.00239405
0.00224425
0.00235898
0.00243405
0.00404728
0.0031843
0.00316893
0.00322523
0.00403315
0.00243256
0.00235996
0.00225662
0.00240648
0.00219372
0.00387528
0.00241755
0.00261561
0.00445191
0.00330459
0.00276441
0.0027918
0.00445178
0.00261565
0.00241745
0.00387545
0.00300283
0.0022711
0.00340932
0.00346077
0.00462675
0.0046263
0.00436954
0.00579314
0.00535384
0.00739875
0.00681873
0.00728511
0.0074162
0.00678112
0.00935874
0.00928767
0.0073469
0.00533692
0.00571513
0.0057684
0.00403312
0.00650208
0.0103758
0.0159466
0.0234397
0.0329222
0.0444654
0.0791426
0.0791663
0.0636932
0.0781479
0.0739333
0.0773887
0.10898
0.0769819
0.0787268
0.108064
0.0789149
0.0761859
0.0915281
0.0794576
0.0781178
0.0533826
0.0796975
0.0602664
0.0989465
0.0932275
0.0777481
0.103289
0.0777456
0.0932278
0.0989459
0.0794582
0.0781178
0.0761859
0.0915282
0.0789149
0.108061
0.0787267
0.076982
0.0668465
0.0667035
0.063693
0.0739334
0.0773887
0.078148
0.107648
0.0779075
0.0904968
0.0778522
0.107647
0.0781183
0.0768788
0.0740037
0.0666352
0.0666353
0.0768791
0.0781186
0.107646
0.0778546
0.0904962
0.078442
0.077905
0.107649
0.0612718
0.0653783
0.0939979
0.0585359
0.0654373
0.0612087
0.0633058
0.0649098
0.0626935
0.0649098
0.0507152
0.0583903
0.0583904
0.09342
0.0633056
0.0612079
0.0654374
0.0585375
0.0653793
0.0612713
0.0632166
0.0649898
0.0626319
0.0648422
0.0631437
0.0604645
0.0642963
0.0579169
0.066153
0.090673
0.0642808
0.0625198
0.0560089
0.0484022
0.0412162
0.0348208
0.0289937
0.0238881
0.0194794
0.0156612
0.0125209
0.00985164
0.00775905
0.00606419
0.00463631
0.00452215
0.00446827
0.00448058
0.00450759
0.00438842
0.00421771
0.00451918
0.00340939
0.00227109
0.00300285
0.0020395
0.00350883
0.00403317
0.00650217
0.0103759
0.0159467
0.0234398
0.0329222
0.0444655
0.0791425
0.0791663
0.0499625
0.0523186
0.0767972
0.0550898
0.0550895
0.0523187
0.0499624
0.0767972
0.052292
0.0667028
0.0668469
0.0732366
0.0647974
0.0796574
0.0508195
0.0516189
0.0803237
0.0757682
0.076644
0.0738919
0.076644
0.0796574
0.0533824
0.0564191
0.0796974
0.0608594
0.0608594
0.056419
0.081209
0.0539559
0.0543832
0.054383
0.0760884
0.0539554
0.0793245
0.0811593
0.0802912
0.0780223
0.0852319
0.080544
0.0862952
0.102461
0.0680731
0.0498529
0.0788812
0.0641826
0.0574599
0.069074
0.0639231
0.0751518
0.062936
0.0629356
0.0391928
0.0582207
0.0343662
0.050346
0.0430645
0.0249947
0.0362825
0.030254
0.0173594
0.0249766
0.0203071
0.0115243
0.0164345
0.0130514
0.00733539
0.0103875
0.00811436
0.00453784
0.00639429
0.005121
0.00292785
0.00387481
0.00237247
0.00278395
0.00278396
0.00259193
0.00243709
0.00238948
0.00225089
0.00305802
0.00219034
0.00219035
0.00220896
0.00309254
0.00222201
0.002222
0.0021629
0.00303482
0.00238479
0.00238486
0.00231541
0.00324303
0.00276499
0.00276626
0.00305167
0.00333434
0.00254613
0.00307196
0.00256405
0.00381099
0.00257194
0.00241961
0.00290585
0.00214513
0.00287266
0.00286682
0.00274674
0.00282667
0.00252331
0.00380018
0.00252487
0.00252229
0.00297105
0.00206147
0.0025343
0.00281138
0.0035076
0.00350214
0.00431347
0.0069532
0.0110894
0.0170257
0.0249925
0.0350311
0.0471414
0.0475036
0.0605148
0.0593936
0.0599716
0.0601941
0.0540117
0.0460434
0.0396067
0.0331575
0.0277961
0.0227376
0.0186452
0.0148936
0.0119726
0.00935907
0.00741613
0.00576863
0.00416444
0.00552815
0.00588107
0.00579369
0.0073979
0.0070135
0.00739841
0.00934501
0.00943397
0.00903431
0.0117155
0.0119545
0.0109324
0.0144433
0.0108997
0.0119727
0.00866599
0.0118417
0.0118679
0.011151
0.0148017
0.0148233
0.0119134
0.00868589
0.00930617
0.00694104
0.00734898
0.00574074
0.00426846
0.00448057
0.00341541
0.00316889
0.00403317
0.00281151
0.00257191
0.00381095
0.00256389
0.00307166
0.00254567
0.00333462
0.00305033
0.00262154
0.00231545
0.00238197
0.00277646
0.0021453
0.00199311
0.00290587
0.00287264
0.00241954
0.00253434
0.00206149
0.00351034
0.00216288
0.00351824
0.00428534
0.00685788
0.0109222
0.0167702
0.0246268
0.0345296
0.0463606
0.0756304
0.0802092
0.0795999
0.0787663
0.0769194
0.0861048
0.0777914
0.108979
0.0855241
0.0647986
0.0508195
0.0516185
0.0760883
0.0556257
0.0542408
0.0587745
0.0581206
0.0606621
0.060139
0.0486991
0.0605022
0.0603742
0.047226
0.0538384
0.0519641
0.0589721
0.0471859
0.0517786
0.071403
0.0710401
0.0709783
0.0732172
0.0627621
0.0496915
0.0525276
0.0585065
0.051491
0.0378922
0.038528
0.0370663
0.0263652
0.0272441
0.0325479
0.0448544
0.0440992
0.0527484
0.053106
0.0456918
0.0460449
0.0405325
0.0525307
0.0478124
0.0465283
0.0757681
0.0803235
0.0522921
0.0803853
0.0799395
0.0793244
0.0815174
0.0602659
0.067905
0.0675398
0.0675816
0.0685891
0.0598392
0.0486069
0.0364607
0.0260469
0.0177802
0.0116396
0.00739807
0.00473086
0.00325738
0.00280929
0.00296788
0.00296788
0.00311877
0.00455372
0.00732288
0.0116709
0.0179303
0.0184367
0.0225578
0.0268554
0.018187
0.0117562
0.0119259
0.0149436
0.0145398
0.0185021
0.0184755
0.0148022
0.0147995
0.0136381
0.0184121
0.0226217
0.0205651
0.0273795
0.0330559
0.0296187
0.03883
0.0357257
0.0391185
0.0329224
0.0296372
0.0389684
0.0461139
0.0405315
0.0445249
0.0346661
0.0247289
0.0253931
0.0275134
0.0225868
0.0205917
0.0274911
0.0330964
0.0251686
0.0318502
0.0380632
0.0516664
0.0574604
0.0592288
0.0934893
0.0732366
0.0496184
0.0576284
0.0934135
0.0610831
0.0741448
0.0714359
0.0520232
0.0522603
0.0462783
0.0442268
0.0379933
0.0268417
0.0269541
0.0182327
0.0117699
0.00729252
0.00729165
0.00741186
0.00947602
0.00919653
0.0119134
0.0118678
0.00930634
0.00928779
0.00866602
0.0118419
0.0111512
0.010964
0.0168408
0.0172185
0.0151347
0.0136639
0.0148236
0.0110648
0.0144489
0.0203074
0.0141814
0.0249766
0.0173597
0.0302547
0.0208829
0.0362827
0.0249953
0.0430654
0.0293507
0.0503458
0.0343669
0.0582214
0.0391557
0.0676976
0.0467382
0.0720975
0.0502968
0.04573
0.0540284
0.0540284
0.0720975
0.0467381
0.0676976
0.0457298
0.0751525
0.0498528
0.0639232
0.0608237
0.0690743
0.05746
0.0641828
0.0661535
0.0788814
0.0675395
0.0679068
0.0815171
0.0805448
0.0802927
0.0852314
0.0780205
0.085524
0.0799377
0.0815664
0.0813213
0.0727839
0.0495883
0.0496807
0.0473549
0.0391929
0.0566653
0.0485279
0.0416076
0.0350684
0.0350674
0.02076
0.029282
0.0176331
0.0241521
0.0141121
0.0197012
0.0117197
0.0159049
0.00918463
0.0126985
0.0074653
0.0100862
0.0057704
0.00792159
0.00462095
0.00631879
0.00359859
0.00490857
0.00294754
0.00425597
0.00302054
0.00425598
0.00237244
0.0038748
0.00292784
0.00512111
0.00351952
0.00639434
0.00453795
0.00811445
0.0057465
0.0103876
0.00733538
0.0130514
0.00920578
0.0164347
0.0115245
0.0117198
0.0159049
0.0107358
0.0126983
0.0100864
0.00792146
0.00631892
0.00427159
0.00490859
0.00294759
0.00351921
0.00572243
0.00462105
0.00598296
0.00951462
0.0148241
0.0222076
0.0318024
0.0434248
0.0555499
0.0555496
0.0675827
0.0627623
0.0496906
0.0434242
0.0566661
0.0347057
0.0485269
0.0291905
0.0416083
0.0253345
0.0311052
0.0351492
0.0291908
0.0340991
0.0250636
0.0207599
0.0292815
0.0241526
0.019701
0.0141121
0.0170828
0.016477
0.0111446
0.0091847
0.00701444
0.00577041
0.00676768
0.0043941
0.00359852
0.00323709
0.00381631
0.00238947
0.00243709
0.00312127
0.00255399
0.00255388
0.00312126
0.00336964
0.00225638
0.00263588
0.00289592
0.00291131
0.00200661
0.00243647
0.0028057
0.00255934
0.00382016
0.00259162
0.00311372
0.00283016
0.00274818
0.00241724
0.00260773
0.00262033
0.00272992
0.00349654
0.00262039
0.00336976
0.00263603
0.00225637
0.00208182
0.00291131
0.0024365
0.00200665
0.00205616
0.00297107
0.00252231
0.0025248
0.00380004
0.00252333
0.00282666
0.00263655
0.00260766
0.00265799
0.00286537
0.00208178
0.00361055
0.00283721
0.00281979
0.00263653
0.00242004
0.00270667
0.00283721
0.00286537
0.00225089
0.00361058
0.0035192
0.004593
0.00735733
0.0117197
0.0179835
0.0263895
0.0369732
0.0425595
0.0347064
0.0425594
0.0471415
0.0391559
0.0625194
0.0475032
0.0527482
0.0405315
0.0456912
0.0357258
0.0388296
0.0296181
0.0330559
0.0331572
0.0248736
0.0270546
0.0277579
0.0249133
0.0325554
0.0383876
0.0395237
0.035129
0.0456775
0.0350814
0.0396066
0.0460436
0.0460444
0.0525308
0.040533
0.054011
0.0471865
0.0519636
0.0538383
0.0472256
0.0589721
0.0601944
0.059971
0.0478122
0.0531063
0.0593933
0.0605143
0.0592288
0.0542409
0.0587744
0.0509607
0.0581209
0.0542168
0.0606618
0.0486016
0.060139
0.0605026
0.0486984
0.0714357
0.0711624
0.0576098
0.0541648
0.0597117
0.0479336
0.0528008
0.052801
0.0405491
0.0461749
0.0351288
0.0395239
0.0383879
0.0456772
0.0350819
0.0325557
0.0249137
0.0277582
0.0270548
0.0248741
0.0221627
0.0168772
0.0186234
0.0181973
0.0168438
0.0181384
0.0117081
0.00725736
0.00448168
0.0045038
0.0044961
0.00455192
0.00581079
0.00564164
0.00740133
0.00734898
0.00574088
0.00571512
0.00533686
0.00734704
0.00694105
0.00687275
0.00426434
0.00426846
0.00363381
0.00342827
0.00319841
0.00209273
0.00326498
0.00315214
0.00359325
0.00353531
0.00328305
0.00230946
0.00218472
0.00353283
0.00563257
0.00918338
0.0145288
0.0220119
0.0319022
0.0333923
0.0381547
0.038249
0.0270459
0.0268891
0.0230416
0.0220433
0.0319397
0.0332347
0.033059
0.0254795
0.0274569
0.027457
0.0205766
0.0226473
0.0172835
0.0184559
0.0184558
0.0136452
0.0149465
0.0109327
0.0119549
0.0117154
0.0144438
0.0108999
0.0152126
0.0181444
0.0182976
0.0118433
0.0117041
0.00962089
0.00924199
0.00943368
0.00681882
0.00739921
0.00728503
0.00903461
0.00678127
0.00589413
0.00725968
0.00738466
0.00457333
0.00446223
0.00368133
0.00326833
0.00314361
0.00318369
0.00254944
0.00188327
0.00222813
0.00211226
0.00223926
0.00188169
0.00255104
0.00237968
0.00297007
0.00324835
0.00468809
0.00573194
0.00535374
0.00612472
0.00597056
0.00534874
0.0057136
0.00423244
0.0096551
0.00868608
0.00929967
0.00689166
0.00922876
0.00746524
0.00922874
0.0144488
0.0216891
0.0249924
0.0350309
0.0293506
0.048401
0.0354109
0.0389678
0.0296367
0.0329217
0.0253928
0.0273792
0.0205648
0.0226213
0.0227371
0.0168435
0.0181973
0.0186231
0.0168767
0.0221624
0.022789
0.0205766
0.022647
0.0220436
0.0271589
0.0383349
0.0519676
0.0442606
0.0442618
0.0576086
0.0541647
0.0603736
0.0597122
0.0572871
0.0556258
0.0445249
0.0465283
0.0346661
0.0369365
0.0326045
0.0311054
0.0253344
0.0216891
0.0176334
0.022733
0.0263739
0.0179729
0.0117102
0.00734798
0.0045867
0.00355688
0.00358569
0.00350215
0.00431345
0.00695319
0.0110893
0.0170255
0.0141812
0.0238873
0.0170732
0.0185018
0.0136638
0.0184755
0.0172183
0.018412
0.0136382
0.0147992
0.0148932
0.0186451
0.0145283
0.0145393
0.0149429
0.0179303
0.0263651
0.0370655
0.0318015
0.0222071
0.0148238
0.00951443
0.011671
0.00732279
0.00598303
0.00386331
0.00455353
0.0031187
0.0031524
0.00359313
0.00463634
0.00423244
0.00452207
0.00342821
0.00318431
0.00218469
0.00350759
0.0042643
0.00687273
0.0109639
0.0168408
0.0247289
0.0326044
0.022733
0.0205915
0.0226551
0.0225863
0.0275132
0.0274908
0.0289936
0.0251678
0.0348199
0.0208828
0.0412165
0.0325463
0.0448537
0.0560087
0.0585075
0.0642808
0.0496183
0.0642981
0.0579149
0.090673
0.0732109
0.0709747
0.0604641
0.0631441
0.0934892
0.0648419
0.0626343
0.064991
0.0934136
0.0632169
0.0714024
0.0710388
0.0574617
0.0514888
0.0525268
0.0378917
0.0385289
0.026854
0.0272434
0.0225567
0.0220053
0.0318496
0.033096
0.0391184
0.0440988
0.046114
0.0516652
0.0380623
0.0269534
0.0182323
0.0181863
0.0184363
0.0117557
0.0110646
0.0125208
0.00985146
0.00689157
0.00740127
0.00534867
0.00571359
0.00606411
0.00351946
0.00775899
0.00574643
0.00581064
0.00947565
0.0119259
0.00919629
0.0092995
0.00729153
0.00741204
0.00449617
0.0045516
0.00326511
0.00209269
0.00334935
0.00380288
0.0028303
0.00259158
0.00382023
0.00255937
0.00280576
0.00404728
0.00319843
0.00353529
0.00446832
0.00564146
0.00563239
0.0091829
0.0117696
0.00729239
0.00450376
0.00328316
0.00353268
0.00448166
0.00725716
0.0117078
0.0181379
0.0268413
0.0379931
0.0517782
0.0576292
0.0610835
0.0520221
0.038248
0.03194
0.0389826
0.0389825
0.0358482
0.0459748
0.0461744
0.0405497
0.0458245
0.0458244
0.057287
0.0542169
0.033548
0.0296374
0.033548
0.0296372
0.0332347
0.033059
0.0233716
0.0233718
0.0155476
0.0155476
0.0151346
0.0096551
0.00597053
0.00572242
0.00363381
0.00350607
0.00220895
0.00372078
0.00612472
0.00991157
0.00991157
0.00867384
0.0118771
0.0112132
0.0118774
0.00867385
0.00924199
0.0119227
0.0145654
0.0148388
0.0148385
0.0149468
0.0136453
0.0145656
0.0183937
0.0182974
0.0270466
0.0230412
0.0333912
0.0319015
0.0442266
0.0462782
0.0522592
0.038154
0.0220113
0.027796
0.026891
0.0181454
0.015212
0.011843
0.00738449
0.00746515
0.00573179
0.00589399
0.00962081
0.0117054
0.00725951
0.00368139
0.00446218
0.00372306
0.00330425
0.00372331
0.00346073
0.00372076
0.00341538
0.00351033
0.0019931
0.00284012
0.00259509
0.00241036
0.00264409
0.00284013
0.00279968
0.00259506
0.00241014
0.00274672
0.00261422
0.00266346
0.00261451
0.00279973
0.00238202
0.00262062
0.00237979
0.00279157
0.00316159
0.00297429
0.00300413
0.0027765
0.00347377
0.002867
0.00326844
0.00934554
0.00350883
0.045975
0.0741446
0.0028198
0.00274816
0.00289596
0.00311379
0.00241732
0.00241994
0.00920567
0.0156609
0.0194791
0.0502967
0.00386332
0.0934204
0.0740028
0.0634244
0.07665
0.0864247
0.0787666
0.0803852
0.0862589
0.0775567
0.0862586
0.0768695
0.0864244
0.07665
0.0634248
0.0784418
0.0939976
0.108899
0.0768679
0.0861051
0.0777926
0.0769199
0.0227889
0.0220059
0.0226555
0.0170735
0.00350605
0.00205615
0.024233
0.0459929
0.056976
0.0354105
0.0509609
0.0486016
0.00219353
)
;

boundaryField
{
    face
    {
        type            calculated;
        value           nonuniform List<scalar> 
154
(
-0.08
-0.08
-0.08
-0.08
-0.08
-0.08
-0.08
-0.08
-0.08
-0.08
-0.08
-0.08
-0.08
-0.08
-0.08
-0.08
-0.08
-0.08
-0.08
-0.08
-0.08
-0.08
-0.08
-0.08
-0.08
-0.08
-0.08
-0.08
-0.08
-0.08
-0.08
-0.08
-0.08
-0.08
-0.08
-0.08
-0.08
-0.08
-0.08
-0.08
-0.08
-0.08
-0.08
-0.08
-0.08
-0.08
-0.08
-0.08
-0.08
-0.08
-0.08
-0.08
-0.08
-0.08