/*--------------------------------*- C++ -*----------------------------------*\
| =========                 |                                                 |
| \\      /  F ield         | OpenFOAM: The Open Source CFD Toolbox           |
|  \\    /   O peration     | Version:  2306                                  |
|   \\  /    A nd           | Website:  www.openfoam.com                      |
|    \\/     M anipulation  |                                                 |
\*---------------------------------------------------------------------------*/
FoamFile
{
    version     2.0;
    format      ascii;
    arch        "LSB;label=32;scalar=64";
    class       volVectorField;
    location    "1.4";
    object      flux;
}
// * * * * * * * * * * * * * * * * * * * * * * * * * * * * * * * * * * * * * //

dimensions      [0 1 -1 1 0 0 0];

internalField   nonuniform List<vector> 
5322
(
(-0.00100607 0.00259906 -0.0034863)
(2.29845e-05 0.000244377 -0.00355783)
(2.79986e-05 -1.73963e-05 -0.00367089)
(3.16805e-06 -0.000108656 -0.00397936)
(-5.51788e-07 -6.00011e-05 -0.00394564)
(-7.14922e-07 -2.1034e-05 -0.00393189)
(-1.15486e-08 -3.87918e-07 -0.0039264)
(5.01255e-07 1.95105e-05 -0.00392784)
(3.00521e-07 5.66165e-05 -0.00393776)
(-8.38026e-07 0.000103079 -0.00396897)
(-4.02608e-06 1.0175e-06 -0.00392312)
(4.37814e-05 -0.000766661 -0.00393407)
(6.74605e-05 -0.000852093 -0.00296062)
(-0.000929209 -0.000764894 -0.00408179)
(-2.46269e-05 -0.00066402 -0.00446333)
(0.00161716 0.00143703 -0.00356295)
(-0.00127077 0.00192216 -0.00421166)
(-2.00682e-05 -3.02195e-06 -0.00315309)
(-0.000969576 0.00132736 -0.00443952)
(0.000625053 -0.00157378 -0.00448034)
(-0.000849838 0.00149688 -0.00450908)
(0.00073928 -0.00152089 -0.00448935)
(-0.000781965 0.00149209 -0.00449221)
(0.000786388 -0.0015274 -0.00451664)
(-0.000796594 0.00152232 -0.00451726)
(0.000765396 -0.00149378 -0.00449326)
(-0.000767085 0.00149258 -0.00449591)
(0.000796007 -0.0015242 -0.00451794)
(-0.000784194 0.00152026 -0.00452084)
(0.000784675 -0.00150218 -0.00449966)
(-0.000744616 0.00151186 -0.00450021)
(0.00084625 -0.00151246 -0.00451006)
(-0.000635731 0.00156215 -0.00448056)
(0.000969328 -0.00134253 -0.00441039)
(1.3968e-05 0.00128813 -0.00419469)
(0.00121698 -0.000644203 -0.00344454)
(0.000858008 0.00126568 -0.00391844)
(-0.000342137 0.00158864 -0.0039931)
(0.0009617 0.000793518 -0.00412181)
(-5.52164e-05 0.000859245 -0.00290307)
(-0.000912044 0.00117247 -0.00383303)
(0.000917186 0.00097926 -0.00395577)
(-5.55184e-05 0.00101374 -0.00285102)
(-0.000975811 0.0010944 -0.0039616)
(0.000969764 0.00104341 -0.00392287)
(-3.33636e-05 0.00103321 -0.00289838)
(-0.00103719 0.00106003 -0.00401648)
(0.000905764 0.00113248 -0.00379132)
(-2.2893e-05 0.00104938 -0.00285979)
(-0.00108705 0.00100203 -0.00392704)
(-0.00107245 0.00125708 -0.00439843)
(-0.00155745 0.000608523 -0.00315569)
(-0.000486563 0.000681292 -0.00429492)
(0.00104425 -0.00224518 -0.00403435)
(-6.65808e-05 -0.000122483 -0.00378207)
(-0.00172435 -0.00129912 -0.00383559)
(-4.89954e-05 0.000682939 -0.0045505)
(0.00164795 -0.0017037 -0.00377611)
(-1.97608e-05 -9.69438e-05 -0.00382156)
(-0.00164673 -0.00148072 -0.00383963)
(-7.09355e-06 0.000693444 -0.00460598)
(0.00160491 -0.00167546 -0.00382701)
(-9.26237e-06 -8.65563e-05 -0.00382312)
(-0.00161746 -0.00146972 -0.00374494)
(-5.71088e-07 0.000696238 -0.00460275)
(0.00158033 -0.00173383 -0.00395567)
(2.00764e-05 -0.000111493 -0.00380489)
(-0.0016018 -0.00142138 -0.00355673)
(6.90115e-05 0.000702728 -0.00449349)
(0.00131178 -0.00190744 -0.00419948)
(5.21447e-05 6.71414e-05 -0.00315161)
(-0.00139985 0.00167553 -0.00491064)
(0.00158612 0.00093327 -0.00467686)
(-0.00164159 0.00130381 -0.00461036)
(0.0015803 0.00097391 -0.00465932)
(-0.00160929 0.00123349 -0.00463666)
(0.00161244 0.00102927 -0.00463426)
(-0.00160907 0.00122806 -0.00461794)
(0.00183176 0.00104274 -0.00467817)
(-0.00131979 0.00144266 -0.00442954)
(0.000646636 0.000131323 -0.00421394)
(-0.000854616 0.000485291 -0.00323966)
(-0.000552686 0.0007334 -0.00335804)
(0.000959337 0.00122066 -0.00453853)
(9.96546e-05 -0.000103843 -0.00309478)
(-0.000543468 -0.000509835 -0.00411495)
(0.000635597 0.000145144 -0.00555465)
(-0.00171146 0.00028543 -0.00339371)
(-0.000645585 0.000528862 -0.00347888)
(0.00203937 6.07095e-05 -0.00312596)
(-8.76852e-05 0.000138428 -0.00395276)
(3.81375e-05 2.55632e-05 -0.00353254)
(7.03448e-05 4.0257e-06 -0.00372716)
(0.000317921 4.73478e-06 -0.00369773)
(0.00146183 0.00177555 -0.00448981)
(-0.000339771 -0.000948146 -0.00388921)
(-4.1386e-05 2.85665e-05 -0.00387516)
(-0.000167437 0.000955942 -0.00394502)
(0.000655351 2.59601e-05 -0.00565316)
(-0.0015176 -2.50016e-05 -0.0033029)
(-0.00151919 0.000130516 -0.00333064)
(0.00339385 2.55571e-05 -0.00317702)
(-0.000164619 0.00101218 -0.00397489)
(0.00112754 -0.00173108 -0.004437)
(0.0018353 0.00154908 -0.00482677)
(-2.27002e-05 2.09048e-05 -0.00376077)
(1.11044e-05 -2.96339e-05 -0.0039897)
(1.51609e-05 -5.52652e-06 -0.0039976)
(9.19321e-06 -9.14332e-07 -0.00398192)
(4.50858e-06 1.65145e-06 -0.003985)
(1.7958e-06 1.87755e-06 -0.0039843)
(-4.68789e-07 2.30411e-06 -0.00398115)
(-4.68914e-06 5.26371e-06 -0.00397523)
(-1.15207e-05 1.05668e-05 -0.00398793)
(1.8146e-05 -1.79509e-05 -0.00459111)
(-6.11208e-06 4.69949e-06 -0.00454635)
(-0.000533912 0.00054653 -0.00318158)
(-0.000526806 -0.000224819 -0.00344763)
(5.57825e-05 -7.72526e-05 -0.00459222)
(0.000335788 -0.000421843 -0.00379974)
(1.90759e-05 0.000518791 -0.00336805)
(0.000512262 -0.000288758 -0.00409652)
(-0.000612715 -0.000562667 -0.00403911)
(-4.59032e-05 -0.000769669 -0.00569042)
(-0.000141114 -0.000869748 -0.00423889)
(0.000949882 -3.50413e-05 -0.00557205)
(0.000781367 0.000637485 -0.0040007)
(0.000217294 -0.000481058 -0.00417748)
(0.000610923 4.50697e-05 -0.00547634)
(0.000394926 0.000525376 -0.00398376)
(0.000300318 -0.000523296 -0.00408856)
(0.000655907 2.20438e-05 -0.00552576)
(0.000331173 0.000546156 -0.00404548)
(0.000355293 -0.000560002 -0.00401242)
(0.000667327 -1.76894e-05 -0.00555103)
(0.000289928 0.000510072 -0.0041027)
(0.000559118 -0.000611862 -0.00403732)
(0.000758591 -4.87163e-05 -0.00569941)
(0.000859949 -0.00014121 -0.00424201)
(3.6947e-05 0.000936761 -0.00557244)
(-0.00063033 0.000776065 -0.00401064)
(3.476e-05 -0.000508595 -0.00337953)
(0.000419921 0.000337237 -0.00380012)
(-0.0005087 0.000262147 -0.00339938)
(-0.000545759 -0.000536143 -0.00318749)
(7.80343e-05 5.77947e-05 -0.00459276)
(0.000225535 -0.000525325 -0.00344779)
(0.000124107 0.000412083 -0.00342356)
(-0.000427128 0.000423483 -0.00314518)
(-0.000469443 -0.000466947 -0.0031659)
(8.78538e-05 -7.05797e-06 -0.00458367)
(0.000139858 -0.000435743 -0.00342824)
(0.000168554 0.000437344 -0.00341499)
(-0.000463244 0.000472063 -0.00314696)
(-0.00043953 -0.00042409 -0.0031735)
(8.85833e-05 -1.43052e-06 -0.00458249)
(9.19523e-05 -0.000405375 -0.00343512)
(0.000266862 0.000514596 -0.00339777)
(-0.000508432 -3.35697e-05 -0.00337834)
(0.000663419 -2.53987e-05 -0.00446264)
(-0.00143008 0.00161713 -0.00355772)
(-0.0019169 -0.00126744 -0.00421718)
(0.00165219 0.00140149 -0.00490416)
(-0.00193486 -0.0014884 -0.00479376)
(-8.10136e-05 5.02773e-05 -0.00304108)
(-0.00133122 -0.000960427 -0.00444037)
(1.07416e-05 -2.05741e-05 -0.0031534)
(0.00129775 -8.784e-06 -0.00427127)
(-0.00031167 -0.000179774 -0.00292449)
(0.00154671 0.000463963 -0.00395502)
(0.000766725 -0.000928359 -0.00408674)
(0.00114331 0.000923641 -0.00379621)
(-0.00171344 -0.00155051 -0.00393112)
(0.000668605 3.53538e-06 -0.0045627)
(-0.00147637 0.00158367 -0.00375311)
(0.000982241 -0.00156461 -0.00462235)
(0.00128059 0.00162895 -0.00459003)
(-0.00156637 -0.00166487 -0.00443325)
(3.51414e-05 6.91822e-06 -0.00370495)
(-0.00133171 0.00164015 -0.00442555)
(0.00117222 -0.00168055 -0.00453026)
(0.00145913 0.00174304 -0.0045396)
(-0.00155084 -0.00173796 -0.00449887)
(-9.58699e-06 6.4588e-06 -0.00376373)
(-0.00129981 0.00169935 -0.00450402)
(0.00123727 -0.00171126 -0.00451881)
(0.00151157 0.0017664 -0.00452454)
(-0.00154947 -0.00175943 -0.00451025)
(-2.98659e-06 3.95358e-06 -0.00377848)
(-0.00129295 0.00171842 -0.00451437)
(0.00125975 -0.00172313 -0.00452066)
(0.0015299 0.00177508 -0.00452459)
(-0.00155903 -0.00176797 -0.00451243)
(3.45908e-07 3.3244e-06 -0.00378567)
(-0.00130151 0.00172732 -0.00451819)
(0.00125836 -0.00173335 -0.00452529)
(0.00153376 0.00178513 -0.00453128)
(-0.00158256 -0.00177203 -0.00450962)
(1.89175e-06 4.32495e-06 -0.003792)
(-0.00132451 0.00173166 -0.00451879)
(0.00123867 -0.00174516 -0.00453246)
(0.00152656 0.00179809 -0.00454265)
(-0.00161833 -0.0017689 -0.00450313)
(4.24165e-06 5.70553e-06 -0.00379695)
(-0.00135368 0.00172614 -0.00451622)
(0.00119976 -0.00175135 -0.00453374)
(0.00150638 0.00180405 -0.00454918)
(-0.00164704 -0.00173367 -0.0044996)
(9.87608e-06 7.35359e-06 -0.00378739)
(-0.00136156 0.00168399 -0.00451823)
(0.00112754 -0.00173436 -0.00445696)
(0.00140761 0.00174883 -0.00447166)
(-0.000307181 -0.000948025 -0.00393617)
(0.000626094 -4.25788e-06 -0.00565633)
(-0.00150639 -6.99568e-05 -0.00330416)
(-0.00153619 2.91427e-05 -0.00329246)
(0.00341472 -2.81885e-05 -0.00318799)
(-0.000117408 -1.7322e-06 -0.00448997)
(-0.000128639 1.11096e-05 -0.00447766)
(7.87073e-05 1.47349e-05 -0.00372747)
(0.000343153 7.1196e-08 -0.00369874)
(0.00145239 0.00177941 -0.00447601)
(-0.000268199 -0.000943688 -0.0039201)
(-2.6538e-05 7.98389e-06 -0.0038277)
(-0.000299015 0.00112502 -0.00397003)
(0.000596398 -0.000152877 -0.00563631)
(-0.00153485 -4.50037e-05 -0.0033218)
(-0.00150964 3.71707e-05 -0.00329184)
(0.00339516 -5.53977e-05 -0.00319386)
(-0.000198453 0.000953122 -0.00392184)
(0.00112785 -0.00175225 -0.00446235)
(-4.26544e-05 1.01745e-05 -0.0038737)
(1.86972e-05 7.80993e-06 -0.00391896)
(1.81848e-05 2.19392e-05 -0.00399069)
(1.17007e-05 1.41964e-05 -0.00398122)
(6.09368e-06 7.58436e-06 -0.00398673)
(2.65026e-06 3.41644e-06 -0.00398588)
(-1.30992e-09 2.44407e-07 -0.00398212)
(-4.33323e-06 -4.66055e-06 -0.00397562)
(-1.04672e-05 -1.17585e-05 -0.00398779)
(1.8108e-05 1.75027e-05 -0.00459091)
(-5.59934e-06 -6.29191e-06 -0.00454748)
(0.000424286 -0.000439965 -0.00316757)
(-0.00047094 -0.000468614 -0.00315776)
(0.000469286 -0.000468826 -0.0031553)
(-0.000426272 -0.000440983 -0.00316737)
(8.49893e-07 9.01023e-05 -0.00458192)
(0.000426728 0.000155275 -0.00341473)
(-0.000403313 9.79039e-05 -0.00343392)
(-2.27309e-06 -0.000592438 -0.0034549)
(-0.000507978 0.000310764 -0.00408753)
(2.80613e-07 -0.000628277 -0.00574212)
(-0.00042683 0.000155637 -0.00341569)
(-3.25207e-07 9.02788e-05 -0.0045821)
(0.000402266 9.8086e-05 -0.00343287)
(1.58238e-05 -0.000620917 -0.00570993)
(0.00047442 0.000216223 -0.00416501)
(-3.87382e-05 0.000594075 -0.00545793)
(-0.00051293 0.000383521 -0.00398093)
(1.67973e-06 -0.000592214 -0.00345573)
(0.000507258 0.000311397 -0.00408714)
(-5.27035e-07 0.0006449 -0.00545914)
(-9.20643e-08 0.000900443 -0.0029145)
(0.000898528 0.000951123 -0.00391554)
(-0.00154448 -0.00155794 -0.00375542)
(0.00154261 -0.00155441 -0.00375106)
(-0.00152577 -0.00167293 -0.00393231)
(0.00160624 0.0012137 -0.00458666)
(-0.00164347 -0.00150582 -0.00443401)
(0.00171889 0.00138207 -0.00453687)
(-0.00171393 -0.00148 -0.00449897)
(0.00174152 0.00143174 -0.00452324)
(-0.00173459 -0.00147477 -0.00450978)
(0.00175005 0.00144995 -0.00452424)
(-0.00174314 -0.0014823 -0.00451212)
(0.00176014 0.00145426 -0.00453188)
(-0.00174708 -0.00150453 -0.00450927)
(0.00177345 0.00144874 -0.00454491)
(-0.00174416 -0.00154101 -0.00450176)
(0.0017811 0.00143458 -0.00455429)
(-0.00171089 -0.00157611 -0.00449496)
(0.00175607 0.00140524 -0.00449967)
(-0.000941117 -0.000309276 -0.00388565)
(1.98045e-05 0.000667306 -0.00565386)
(0.000949966 -0.000211951 -0.00396016)
(2.56082e-05 -3.65614e-05 -0.00387374)
(-0.00171312 0.0012166 -0.00444656)
(0.00166514 -0.00145142 -0.00452903)
(8.63311e-06 1.42443e-05 -0.00378934)
(-0.00173011 0.00130085 -0.00453227)
(0.0017044 -0.00145548 -0.00452177)
(5.85466e-06 6.55869e-06 -0.00379869)
(-0.00172378 0.00134364 -0.00453438)
(0.00170892 -0.00142908 -0.00452098)
(3.87401e-06 3.06752e-06 -0.00379324)
(-0.00171199 0.00136289 -0.00452802)
(0.00170421 -0.00140565 -0.00451855)
(2.68599e-06 7.77135e-07 -0.00378637)
(-0.00170183 0.00136267 -0.00452349)
(0.00169526 -0.00139529 -0.00451354)
(2.79991e-06 -3.1567e-06 -0.00377875)
(-0.00169032 0.00133888 -0.00452266)
(0.00167654 -0.00139806 -0.00450141)
(4.50222e-06 -1.03047e-05 -0.00376367)
(-0.00166083 0.00126994 -0.00453654)
(0.00161708 -0.00142171 -0.0044208)
(5.12141e-06 3.33106e-05 -0.00370393)
(-0.00154451 0.0010635 -0.00462865)
(9.07266e-07 -9.82248e-05 -0.0037967)
(0.00154397 0.00106256 -0.00462345)
(-0.00161809 -0.00142402 -0.00442578)
(-7.2653e-06 3.33722e-05 -0.00370396)
(-0.00160386 0.00122005 -0.00459134)
(0.00152346 -0.0016633 -0.00393135)
(-2.86013e-06 0.00066756 -0.00456167)
(-0.000906188 0.00110379 -0.00378796)
(-5.88753e-05 0.000824936 -0.00295004)
(0.000921774 0.000772177 -0.00409552)
(-0.00159948 -0.00146737 -0.00356367)
(0.00154446 0.000962675 -0.00464339)
(-0.00162653 -0.0013698 -0.004443)
(0.00163413 0.00121159 -0.00452823)
(-0.00166363 -0.00134253 -0.0045252)
(0.00166204 0.00128677 -0.00452061)
(-0.00167005 -0.00133911 -0.00452654)
(0.00167477 0.00131133 -0.00452756)
(-0.00167285 -0.0013503 -0.00452452)
(0.00168989 0.0013142 -0.00453778)
(-0.00167337 -0.00137924 -0.00451935)
(0.00171251 0.00130507 -0.00455826)
(-0.00166158 -0.00141396 -0.00449654)
(0.00173502 0.00128366 -0.00458389)
(-0.00160433 -0.0014014 -0.0044526)
(0.00172309 0.00122457 -0.00451103)
(-0.000927429 -0.00020188 -0.00390686)
(-0.000199135 0.000482934 -0.00557147)
(0.000403338 -0.000552438 -0.00412451)
(5.08876e-05 -1.02002e-05 -0.00373247)
(-0.00159929 0.00167865 -0.00478798)
(0.00143898 -0.00205327 -0.00486255)
(2.01705e-05 3.55798e-05 -0.00366679)
(-0.00157485 0.00184325 -0.00487037)
(0.0015218 -0.00200531 -0.00484963)
(2.90182e-06 1.79491e-05 -0.00367798)
(-0.00152616 0.00187642 -0.00486399)
(0.00151959 -0.00193311 -0.00484093)
(-1.85859e-06 7.0179e-06 -0.00366875)
(-0.00150688 0.0018764 -0.00484826)
(0.00150823 -0.00189599 -0.00483579)
(-2.62932e-06 1.77047e-06 -0.003661)
(-0.0015011 0.00187526 -0.00484296)
(0.00150474 -0.00188448 -0.00483669)
(-7.65521e-06 -3.58931e-06 -0.00365599)
(-0.00149622 0.00187147 -0.00484332)
(0.00150666 -0.00188363 -0.0048343)
(-1.94059e-05 -7.70879e-06 -0.00364712)
(-0.00147533 0.0018398 -0.00486136)
(0.00148652 -0.00189967 -0.00479542)
(-4.4809e-05 4.24099e-05 -0.00359549)
(-0.0013731 0.00163571 -0.00490342)
(0.00125721 -0.0018912 -0.00421634)
(2.7118e-05 0.000663607 -0.00446112)
(-0.000455597 0.00154176 -0.0039536)
(0.000775446 0.00137007 -0.00417693)
(0.00127513 -0.000687904 -0.00364422)
(4.06541e-05 0.00130627 -0.00428518)
(0.000158709 -0.00031006 -0.00291619)
(-0.000233095 0.000246172 -0.00332834)
(0.000652414 0.00156517 -0.00378594)
(-0.00201241 -0.00135459 -0.00347547)
(0.00152705 0.0012639 -0.0047517)
(-0.00191501 -0.00119 -0.0046279)
(-0.00128952 0.00190611 -0.00445843)
(-0.0015944 -0.00167821 -0.00442836)
(4.14617e-05 -1.32759e-05 -0.00369483)
(0.00104986 -0.00187805 -0.00459243)
(0.00116118 0.00160192 -0.00465916)
(-0.00167166 -0.00163868 -0.00361738)
(0.000646479 4.81642e-05 -0.00458112)
(-0.00150023 0.00172529 -0.00402382)
(-0.000111503 7.70404e-05 -0.00382699)
(8.03941e-05 3.34304e-05 -0.0037618)
(-0.000607262 -0.00048824 -0.0055444)
(5.19614e-05 4.78793e-05 -0.00447379)
(-2.45131e-05 -3.92011e-05 -0.00424148)
(-0.000644267 2.56216e-05 -0.0056925)
(6.57135e-05 -9.35277e-06 -0.00408089)
(-0.000104054 -3.34548e-06 -0.00380443)
(-0.00152215 0.00157734 -0.00388531)
(-0.00165086 -0.00158042 -0.00377601)
(0.00119114 0.00158164 -0.00462836)
(-0.00154471 -0.00164434 -0.00442072)
(1.98225e-05 2.64744e-07 -0.00374382)
(0.0014095 0.00169661 -0.00453976)
(-0.00153664 -0.00170773 -0.00450137)
(0.00148422 0.00172757 -0.00452506)
(-0.00153846 -0.00172742 -0.00451369)
(1.08399e-05 1.19596e-06 -0.00372444)
(0.00151229 0.00174101 -0.00452719)
(-0.0015506 -0.00173492 -0.00451618)
(0.00151811 0.0017542 -0.00453488)
(-0.00157599 -0.00173649 -0.00451304)
(5.88662e-05 1.41116e-06 -0.00371848)
(0.0015082 0.00176925 -0.00454661)
(-0.00160607 -0.00172746 -0.00450457)
(0.00147878 0.0017751 -0.00455078)
(-0.0016118 -0.00168489 -0.0045026)
(0.000332936 -2.73229e-06 -0.00370273)
(7.78022e-05 2.29938e-06 -0.00373147)
(4.98636e-05 3.80032e-06 -0.00373433)
(5.24706e-05 1.27019e-05 -0.00373469)
(2.52065e-05 7.13956e-06 -0.00373922)
(6.18517e-05 4.6314e-06 -0.00372536)
(0.00155893 0.0017852 -0.00456124)
(-0.00164804 -0.00172491 -0.00450493)
(1.29114e-05 9.13553e-06 -0.00379137)
(-0.00133673 0.00203992 -0.00454377)
(0.00110169 -0.00201571 -0.00450006)
(0.0015359 0.0018057 -0.00457514)
(-0.00161773 -0.00166785 -0.00447882)
(2.91297e-05 1.75234e-05 -0.00377462)
(-0.00142035 0.0020259 -0.00456391)
(0.000987783 -0.00192608 -0.00438365)
(0.00197418 0.00122755 -0.00488092)
(-0.000232231 -0.000854279 -0.0037485)
(3.73968e-05 -0.00136515 -0.0055257)
(-0.00164721 -9.27934e-05 -0.00335835)
(-0.0015201 -2.09733e-05 -0.00321331)
(0.00321349 -0.000493455 -0.00326712)
(-0.000199497 -0.000126795 -0.00432253)
(5.3433e-05 3.81942e-05 -0.00350718)
(8.9941e-05 0.000907596 -0.00312213)
(-0.000980015 0.00118445 -0.00456181)
(0.000224221 9.44439e-05 -0.00305492)
(0.000770138 -0.00192896 -0.00439102)
(-0.000797027 0.00146518 -0.00455215)
(6.55372e-05 1.45547e-05 -0.003049)
(0.000826236 -0.00163502 -0.00448181)
(-0.000749396 0.00149409 -0.00452376)
(1.04343e-05 -3.26255e-06 -0.00304016)
(0.000803975 -0.00153768 -0.0045147)
(-0.000768664 0.00151274 -0.00452304)
(-1.36943e-06 6.61662e-07 -0.00303704)
(0.000768554 -0.00148467 -0.0044992)
(-0.000745806 0.00150692 -0.00449281)
(-1.98504e-05 -1.06344e-05 -0.00303782)
(0.00079971 -0.00148303 -0.00451495)
(-0.000721146 0.00156514 -0.00449081)
(-4.88888e-05 -2.67985e-05 -0.00304225)
(0.000843158 -0.00141394 -0.00450401)
(-0.000567291 0.00159785 -0.00445661)
(-8.18042e-05 -0.000100469 -0.00303923)
(0.000996641 -0.00126125 -0.00446311)
(0.000378448 0.00040937 -0.00342004)
(0.000279881 0.000615507 -0.00329742)
(-7.35848e-05 -0.000759077 -0.00410802)
(-3.83001e-05 6.38968e-06 -0.00358675)
(0.000392412 0.00124005 -0.00399743)
(-0.000172534 -0.00105557 -0.00414585)
(0.00176763 0.00123887 -0.00462265)
(-0.00188878 -0.00121134 -0.00467141)
(0.00184606 0.00123021 -0.00462998)
(-0.00188533 -0.00121745 -0.00465793)
(-0.0012206 0.00198093 -0.00451701)
(-0.00158276 -0.00173634 -0.0045262)
(-3.612e-06 -4.08128e-06 -0.00377083)
(0.00120792 -0.00198538 -0.00453274)
(0.00152409 0.00173014 -0.00453001)
(-0.00158112 -0.00172478 -0.00451894)
(-8.64542e-06 -1.0348e-05 -0.00375858)
(-0.00122511 0.00196258 -0.00450542)
(1.03122e-05 -7.09033e-08 -0.00373673)
(9.16345e-07 -4.41458e-06 -0.00353551)
(1.33598e-05 -2.88224e-06 -0.00354684)
(-1.27782e-06 -0.000113737 -0.00315332)
(2.62479e-05 2.56561e-05 -0.00367675)
(0.000101402 0.000158738 -0.00356899)
(9.38299e-05 0.00017246 -0.00342377)
(0.000170384 7.02429e-05 -0.00399138)
(-4.99656e-05 3.01026e-05 -0.00396241)
(2.6864e-05 9.93542e-05 -0.00392091)
(0.000709722 7.0376e-05 -0.00395708)
(0.00112775 -9.05645e-05 -0.00307282)
(0.000940586 0.00146645 -0.00500722)
(0.000317937 0.000470133 -0.00277324)
(0.00143006 0.000102254 -0.00372283)
(0.000569221 0.000350973 -0.00395268)
(0.000266956 7.49208e-05 -0.00386309)
(7.96787e-05 2.24935e-05 -0.00387993)
(5.08472e-05 1.56961e-05 -0.00399249)
(-2.32643e-05 5.28667e-06 -0.00393235)
(-1.49737e-05 3.0031e-06 -0.00392163)
(1.45199e-05 4.11794e-06 -0.00399969)
(2.40364e-05 3.97702e-06 -0.00388079)
(-0.000224495 -0.00111393 -0.00414331)
(-3.41356e-06 1.18579e-06 -0.00364249)
(0.000258884 0.00113706 -0.00410062)
(-0.00023901 -0.00112427 -0.00411527)
(0.0018701 0.00122754 -0.00465037)
(-0.00189473 -0.00122123 -0.0046464)
(0.00188215 0.00124017 -0.00466475)
(-0.00193277 -0.00122411 -0.0046355)
(-0.00126774 0.00201272 -0.00453011)
(-0.00162332 -0.00173966 -0.00452166)
(4.61251e-06 3.27503e-06 -0.00378545)
(0.00119927 -0.00199688 -0.00453193)
(0.00156442 0.00176165 -0.00454369)
(-0.00159629 -0.00174057 -0.00452617)
(6.79037e-07 -1.98488e-07 -0.00377788)
(-0.00123351 0.0019935 -0.00452389)
(1.7897e-05 3.92764e-06 -0.00373033)
(7.95117e-06 4.00446e-06 -0.00353791)
(2.01382e-06 -4.69458e-07 -0.00353557)
(1.37642e-06 -1.14619e-05 -0.00314081)
(3.41373e-06 -5.73869e-06 -0.0036667)
(6.15338e-06 1.7175e-05 -0.00362668)
(9.72889e-06 1.24561e-05 -0.00347204)
(7.81157e-06 2.10956e-06 -0.00366497)
(2.09679e-05 5.36122e-05 -0.00354423)
(3.19091e-05 3.84534e-05 -0.00340294)
(0.000304381 0.00116142 -0.0040883)
(-5.27858e-06 5.63716e-06 -0.00363764)
(-1.98507e-06 -5.34202e-05 -0.00314319)
(-9.75223e-06 -4.52476e-06 -0.00396497)
(1.70385e-06 -7.78619e-05 -0.00398263)
(4.07612e-06 9.94344e-06 -0.00393766)
(-4.01569e-05 0.000771494 -0.00393664)
(9.32703e-05 0.00147326 -0.00371454)
(-0.00107498 0.00270816 -0.00360579)
(-2.67082e-06 0.000283808 -0.00358047)
(1.47932e-05 -4.11387e-05 -0.00314541)
(7.26154e-07 -1.90902e-05 -0.00392046)
(-1.45458e-05 -7.34355e-05 -0.00386938)
(0.00164373 -0.00149629 -0.00443152)
(-2.596e-07 6.5131e-06 -0.00373816)
(-0.00171815 0.00139247 -0.00454044)
(0.00166064 0.00126734 -0.00453245)
(-0.00167667 -0.00139878 -0.0045051)
(-5.89092e-06 -1.02236e-05 -0.0037643)
(0.00171644 -0.00147455 -0.00449766)
(4.55152e-08 1.0871e-05 -0.00372153)
(-0.00174127 0.00144068 -0.00452528)
(0.00169155 0.00133668 -0.00452067)
(-0.00169407 -0.0013946 -0.00451486)
(-2.44325e-06 -3.00841e-06 -0.00377975)
(0.00173877 -0.00147471 -0.00451084)
(1.02355e-06 9.40558e-06 -0.00371666)
(-0.00174919 0.00145401 -0.00452461)
(0.00170514 0.0013626 -0.00452484)
(-0.00170093 -0.00140439 -0.00451643)
(1.31641e-07 1.02168e-06 -0.00378786)
(0.00174961 -0.00148799 -0.00451603)
(1.92665e-06 2.51351e-05 -0.00371414)
(-0.00175855 0.00145065 -0.00452979)
(0.0017182 0.00136715 -0.00453404)
(-0.00170251 -0.00142875 -0.00451281)
(2.59307e-06 3.56644e-06 -0.00379527)
(0.00175697 -0.00151808 -0.00451784)
(1.61123e-06 7.07981e-05 -0.0037101)
(-0.00177053 0.00142816 -0.00453579)
(0.00173342 0.00135793 -0.00454893)
(-0.00169362 -0.00146116 -0.00450153)
(6.21018e-06 7.40772e-06 -0.00380064)
(0.00175571 -0.00156009 -0.00451909)
(-3.33168e-06 0.000172531 -0.00370297)
(-0.00177391 0.0013752 -0.00452825)
(0.00174088 0.001337 -0.00455928)
(-0.00165221 -0.00147757 -0.00449249)
(9.8486e-06 1.5561e-05 -0.00378806)
(0.00171206 -0.00157592 -0.00452466)
(-1.50754e-05 0.000385156 -0.0036848)
(-0.00174164 0.00128761 -0.00444522)
(0.00171703 0.00128752 -0.00448791)
(-0.000942517 -0.000247738 -0.00392977)
(-1.14064e-06 -3.55295e-05 -0.0038668)
(0.000935912 -0.000286904 -0.00393041)
(-5.74293e-05 0.00339104 -0.00320767)
(-0.000119532 -0.00151522 -0.00330455)
(-0.000125507 -0.00154718 -0.00317564)
(-0.000131172 0.00250538 -0.00300832)
(-0.00164255 0.000651387 -0.00430995)
(0.000409637 0.000270403 -0.00306976)
(0.000364332 -0.00233773 -0.00414312)
(-0.000139793 -0.000482058 -0.00340605)
(-0.000288127 -0.00028214 -0.00326366)
(-0.000143527 0.00120069 -0.00426372)
(-0.00187418 -0.00125345 -0.00437141)
(0.000394901 -2.18682e-05 -0.00367561)
(-0.000480104 2.62335e-05 -0.00387665)
(-0.000804112 -0.000157139 -0.00387655)
(-0.000294273 -0.000188972 -0.00390583)
(-0.000230766 -1.94536e-05 -0.00398436)
(-0.000241734 5.01662e-05 -0.00390726)
(-0.000103094 2.90761e-05 -0.0039136)
(-4.61442e-05 1.17548e-05 -0.0040077)
(7.73405e-06 -1.54446e-05 -0.00389541)
(-2.10167e-06 6.89814e-06 -0.00400445)
(-3.75407e-05 1.11571e-05 -0.00391763)
(-4.67747e-05 3.29707e-06 -0.00388946)
(-2.74953e-05 3.87782e-07 -0.00389797)
(-5.29916e-05 -2.96776e-06 -0.00391246)
(-0.000104844 -1.02482e-05 -0.00394504)
(1.84255e-05 -1.97017e-05 -0.00389695)
(0.000833485 -6.83441e-05 -0.00390012)
(0.000977296 -3.66197e-05 -0.00296743)
(0.000958425 0.00095364 -0.00405307)
(0.00110427 -0.000954029 -0.00358738)
(0.00136565 1.14855e-05 -0.00373093)
(0.00130018 6.15485e-06 -0.00374838)
(0.00101692 -0.000969029 -0.00382047)
(0.00102362 0.000954791 -0.00394767)
(0.000667864 -2.25606e-06 -0.00457331)
(-0.000593907 3.96978e-06 -0.00344774)
(0.000191721 -4.3158e-06 -0.00424812)
(-6.96854e-05 -7.23202e-05 -0.00419469)
(-4.88042e-05 -4.58286e-05 -0.00423991)
(0.000174016 0.00017314 -0.00430251)
(-0.000517794 1.87719e-05 -0.0033707)
(-1.40979e-06 0.000199245 -0.00423448)
(-8.14642e-07 -7.06627e-05 -0.00424967)
(-1.67362e-06 -8.66482e-05 -0.00422948)
(1.31046e-07 9.96708e-08 -0.00457762)
(-0.000327099 0.00031915 -0.00309339)
(-0.000372653 -0.000370975 -0.00311373)
(-0.000369316 0.000372464 -0.00310823)
(-0.000331101 -0.000317959 -0.00310329)
(0.000328236 -0.000321878 -0.00309332)
(-0.000278639 -0.000275162 -0.00308237)
(1.03388e-05 1.02638e-05 -0.00458469)
(0.000371017 0.000369356 -0.00310326)
(-0.000320167 0.000332397 -0.00309999)
(-0.000321471 -0.000331797 -0.00310108)
(1.02586e-05 -9.88483e-06 -0.00458495)
(0.000369656 -0.00037215 -0.00310843)
(-2.1148e-08 -1.51009e-08 -0.00460401)
(6.08584e-08 5.89168e-08 -0.0046096)
(1.64401e-07 2.36493e-05 -0.00460003)
(1.82033e-07 6.70606e-05 -0.00408103)
(-9.76224e-06 6.00249e-05 -0.0040737)
(1.3113e-05 -0.000133077 -0.00378461)
(-6.68595e-06 2.59078e-06 -0.00373296)
(-3.67215e-06 6.55315e-07 -0.00372406)
(-4.46515e-07 3.88988e-06 -0.00372693)
(2.05449e-06 1.12117e-05 -0.00372932)
(5.09708e-06 2.72874e-05 -0.00372996)
(2.15936e-05 1.17625e-05 -0.00353769)
(1.59578e-05 9.58741e-05 -0.00314437)
(8.61975e-06 -7.56184e-05 -0.00365802)
(3.77643e-05 -8.55279e-06 -0.00361772)
(-1.06579e-05 5.43177e-05 -0.0034595)
(0.000226197 0.00119701 -0.00412725)
(-0.000322715 -0.00109256 -0.00410701)
(0.00191226 0.00126135 -0.0047087)
(-0.00197395 -0.00124309 -0.00456502)
(0.00196521 0.00127533 -0.00480975)
(-4.08249e-05 -3.06606e-05 -0.0036895)
(-0.000577267 -0.00113076 -0.00397538)
(-8.63631e-05 3.27367e-05 -0.00339048)
(0.000159038 0.00126672 -0.00416763)
(-1.70615e-05 -4.67124e-06 -0.00367964)
(-3.79912e-05 -5.54838e-05 -0.00390619)
(-1.98743e-05 1.14374e-05 -0.00398691)
(-0.000110516 7.89115e-06 -0.00388123)
(-0.000231076 1.57038e-05 -0.00387306)
(-0.000460701 1.85884e-05 -0.00388018)
(-0.00105283 -1.33752e-05 -0.00402614)
(-0.00107639 -0.000187928 -0.00397339)
(-0.00268161 0.000644082 -0.00391331)
(-0.00126532 -0.000287376 -0.00371501)
(-0.00110633 -0.00123512 -0.00355835)
(-3.76031e-05 -0.000156613 -0.00359204)
(-0.000436188 -0.00014894 -0.00373608)
(0.00034296 -0.00243443 -0.00294863)
(-0.00216761 -0.000671135 -0.00322945)
(-0.00129531 8.55943e-05 -0.00436989)
(-0.000605916 -0.000982138 -0.00395754)
(0.000981824 0.000726101 -0.00414407)
(7.90967e-05 3.33873e-05 -0.00424861)
(5.12609e-05 4.11192e-05 -0.00281366)
(-0.00102665 0.000878944 -0.00351237)
(0.00108653 0.000737319 -0.00370453)
(6.39373e-06 0.000103339 -0.00437771)
(-0.000128516 -8.24244e-05 -0.00291597)
(-0.00112791 0.00097768 -0.00365895)
(0.00109178 0.000878644 -0.00372502)
(1.90881e-06 0.000111411 -0.00439882)
(-0.000143298 -9.93319e-05 -0.00292771)
(-0.00110073 0.000887157 -0.00361297)
(0.00108817 0.00100203 -0.0037688)
(9.37934e-06 0.00010384 -0.00438249)
(-0.000234886 -0.000229013 -0.00298296)
(-0.00105024 0.000735869 -0.00356962)
(0.000775866 0.00102319 -0.00398962)
(-0.00061823 -0.000354536 -0.00545038)
(0.000506463 0.000533557 -0.00406896)
(0.000383945 -0.000465206 -0.0039705)
(0.0011334 0.000497204 -0.0049922)
(-0.000532539 -0.00196326 -0.00483927)
(-0.000308167 -0.00106632 -0.0039409)
(0.000168443 0.000192753 -0.00298173)
(0.000682289 -0.000484567 -0.0042951)
(-0.00223183 0.00105543 -0.00403741)
(-0.000124252 -6.36458e-05 -0.00378016)
(-0.00130676 -0.00173013 -0.0038276)
(0.00113882 0.000912973 -0.00379889)
(0.00104915 -1.82469e-05 -0.00286107)
(0.00100121 -0.00108425 -0.00392013)
(0.00125696 -0.00107184 -0.0044004)
(0.000607752 -0.00155825 -0.00315476)
(0.000137974 0.000655434 -0.00421672)
(0.000485605 -0.000856867 -0.00324147)
(0.000734306 -0.000548734 -0.00336102)
(0.00121328 0.000953149 -0.0045401)
(-0.000564934 -0.00197666 -0.00430637)
(0.000116543 -0.000221904 -0.00348571)
(0.000899747 0.00139005 -0.00456729)
(-0.000774305 -0.00171075 -0.00443324)
(8.73861e-07 -4.40129e-05 -0.0035774)
(0.000786965 0.00148856 -0.004537)
(-0.000797591 -0.00156592 -0.00448624)
(-1.00158e-05 3.28064e-06 -0.00358565)
(0.000763192 0.00149975 -0.00452037)
(-0.000779488 -0.00150888 -0.00449931)
(-5.86461e-06 7.63287e-06 -0.00359035)
(0.000758176 0.00149242 -0.0045097)
(-0.000770997 -0.00149328 -0.00450242)
(-5.14133e-06 8.38307e-06 -0.00358655)
(0.000755518 0.00149097 -0.00450649)
(-0.000775717 -0.00148928 -0.00450132)
(-1.08545e-05 2.29005e-05 -0.00359239)
(0.000729828 0.00149845 -0.00449748)
(-0.000818736 -0.00147945 -0.00450281)
(-6.45767e-05 9.16322e-05 -0.00353167)
(0.000619556 0.00154539 -0.00448212)
(-0.000947974 -0.00132543 -0.00443753)
(-0.000353064 0.000372918 -0.0034427)
(-1.5289e-05 0.00128561 -0.00427306)
(-0.00127691 -0.000717855 -0.0036256)
(-0.000790611 0.00136403 -0.00417172)
(0.000461253 0.00154058 -0.00394892)
(-0.00125809 -0.00191039 -0.00421491)
(0.00139193 0.00163038 -0.00490498)
(-0.00147741 -0.00191758 -0.00479258)
(4.14718e-05 4.41291e-05 -0.00359549)
(-0.00154814 0.000959567 -0.00465214)
(0.00159695 -0.00146806 -0.0035563)
(-2.42703e-05 0.000662879 -0.00446308)
(-0.000920832 0.000768465 -0.00409384)
(5.87993e-05 0.000831904 -0.00295065)
(0.000907549 0.00110368 -0.00378314)
(-0.000897793 0.000949223 -0.00391819)
(3.17601e-06 0.000667078 -0.00456272)
(5.29673e-06 0.00128519 -0.00373668)
(1.55612e-06 0.000765338 -0.00392514)
(1.25028e-06 -6.42495e-06 -0.00393038)
(1.93013e-06 -0.000111589 -0.00397183)
(1.78996e-06 -6.26295e-05 -0.00393732)
(6.10526e-07 -3.93283e-05 -0.00394746)
(1.3327e-06 -2.38601e-05 -0.0039351)
(3.50608e-06 -4.63837e-05 -0.00392796)
(5.03341e-06 -2.45469e-05 -0.00366638)
(1.53149e-05 6.77798e-06 -0.00355841)
(2.21487e-06 2.45877e-05 -0.0034152)
(0.000245464 0.00114258 -0.0041392)
(-0.000258109 -0.00110757 -0.00414301)
(-7.40796e-06 5.70264e-09 -0.003657)
(-1.81314e-06 1.91547e-06 -0.00364576)
(1.0579e-05 3.84966e-07 -0.00388644)
(1.24243e-06 1.24104e-07 -0.00395212)