/*--------------------------------*- C++ -*----------------------------------*\
| =========                 |                                                 |
| \\      /  F ield         | OpenFOAM: The Open Source CFD Toolbox           |
|  \\    /   O peration     | Version:  2306                                  |
|   \\  /    A nd           | Website:  www.openfoam.com                      |
|    \\/     M anipulation  |                                                 |
\*---------------------------------------------------------------------------*/
FoamFile
{
    version     2.0;
    format      ascii;
    arch        "LSB;label=32;scalar=64";
    class       volVectorField;
    location    "1.4";
    object      flux;
}
// * * * * * * * * * * * * * * * * * * * * * * * * * * * * * * * * * * * * * //

dimensions      [0 1 -1 1 0 0 0];

internalField   nonuniform List<vector> 
5322
(
(-2.07817e-06 5.27811e-06 -7.00735e-06)
(1.32413e-07 6.66999e-07 -6.22206e-06)
(1.35745e-07 2.04293e-07 -4.9508e-06)
(-2.34307e-09 1.20522e-07 -5.34653e-06)
(-9.3208e-09 1.75629e-07 -3.751e-06)
(-7.3689e-09 1.69448e-07 -2.4839e-06)
(-4.65386e-09 1.30382e-07 -1.54963e-06)
(-2.80107e-09 8.98153e-08 -9.11477e-07)
(-1.71511e-09 5.80709e-08 -5.08494e-07)
(-8.89099e-10 3.41143e-08 -2.76767e-07)
(-2.93244e-10 1.12652e-08 -1.60414e-07)
(1.56499e-09 -2.53588e-08 -1.24257e-07)
(2.02482e-09 -2.30454e-08 -8.2915e-08)
(-2.68205e-08 -2.15901e-08 -1.20528e-07)
(4.54434e-11 -2.02845e-08 -1.36323e-07)
(5.45824e-08 4.8601e-08 -1.22333e-07)
(-4.20309e-08 6.31066e-08 -1.41885e-07)
(1.70634e-09 -1.04561e-09 -1.18678e-07)
(-3.69954e-08 5.45277e-08 -1.91477e-07)
(4.34741e-08 -9.2281e-08 -2.51235e-07)
(-5.69674e-08 1.12342e-07 -3.57606e-07)
(9.24913e-08 -1.6814e-07 -4.76014e-07)
(-9.69835e-08 2.10388e-07 -6.69972e-07)
(1.75003e-07 -3.08961e-07 -8.82895e-07)
(-1.82871e-07 3.87323e-07 -1.20415e-06)
(2.95181e-07 -5.25318e-07 -1.52792e-06)
(-2.976e-07 6.40887e-07 -2.01729e-06)
(4.89512e-07 -8.71431e-07 -2.51342e-06)
(-4.95279e-07 1.04033e-06 -3.20698e-06)
(7.37305e-07 -1.31828e-06 -3.84911e-06)
(-7.00869e-07 1.54403e-06 -4.75202e-06)
(1.12608e-06 -1.90982e-06 -5.5863e-06)
(-8.27226e-07 2.24493e-06 -6.62721e-06)
(1.71519e-06 -2.28845e-06 -7.40858e-06)
(1.83361e-07 2.39203e-06 -8.05646e-06)
(2.64543e-06 -1.40752e-06 -7.22528e-06)
(1.87857e-06 2.84583e-06 -8.62574e-06)
(-7.43954e-07 3.44061e-06 -8.44191e-06)
(2.05129e-06 1.74573e-06 -8.69507e-06)
(-1.23452e-07 1.97877e-06 -6.44102e-06)
(-1.94801e-06 2.54328e-06 -8.05101e-06)
(1.95135e-06 2.1397e-06 -8.31149e-06)
(-1.18034e-07 2.31116e-06 -6.3121e-06)
(-2.07413e-06 2.37791e-06 -8.31242e-06)
(2.0651e-06 2.26831e-06 -8.2282e-06)
(-6.99131e-08 2.35645e-06 -6.4262e-06)
(-2.20371e-06 2.3047e-06 -8.4358e-06)
(1.94696e-06 2.46386e-06 -7.97842e-06)
(-4.43346e-08 2.39971e-06 -6.36512e-06)
(-2.31465e-06 2.19174e-06 -8.32124e-06)
(-2.30279e-06 2.77147e-06 -9.56323e-06)
(-3.2973e-06 1.21098e-06 -6.37632e-06)
(-1.10842e-06 1.43765e-06 -8.98107e-06)
(2.05215e-06 -4.35439e-06 -7.8085e-06)
(-1.35946e-07 -2.04152e-07 -6.85274e-06)
(-3.34027e-06 -2.49461e-06 -7.37956e-06)
(-1.04482e-07 1.39328e-06 -9.26687e-06)
(3.17049e-06 -3.2428e-06 -7.22958e-06)
(-3.79612e-08 -1.45307e-07 -6.84675e-06)
(-3.16931e-06 -2.81673e-06 -7.35253e-06)
(-1.34626e-08 1.41372e-06 -9.35863e-06)
(3.08766e-06 -3.18559e-06 -7.32619e-06)
(-1.55642e-08 -1.28942e-07 -6.84367e-06)
(-3.11292e-06 -2.79636e-06 -7.17349e-06)
(4.40816e-09 1.42036e-06 -9.36138e-06)
(3.04808e-06 -3.30662e-06 -7.5938e-06)
(4.71961e-08 -1.81164e-07 -6.82408e-06)
(-3.08356e-06 -2.71604e-06 -6.82739e-06)
(1.70656e-07 1.44323e-06 -9.19849e-06)
(2.54855e-06 -3.70501e-06 -8.1228e-06)
(1.60473e-07 1.05215e-07 -5.69348e-06)
(-2.3584e-06 2.77922e-06 -8.26637e-06)
(2.68054e-06 1.53991e-06 -7.86522e-06)
(-2.75887e-06 2.1622e-06 -7.74635e-06)
(2.65443e-06 1.60527e-06 -7.81705e-06)
(-2.70449e-06 2.0427e-06 -7.77961e-06)
(2.70631e-06 1.69773e-06 -7.77404e-06)
(-2.70938e-06 2.03764e-06 -7.75666e-06)
(3.08812e-06 1.73524e-06 -7.88929e-06)
(-2.27519e-06 2.44438e-06 -7.5517e-06)
(1.05673e-06 1.67057e-07 -7.39587e-06)
(-1.70905e-06 9.94407e-07 -6.07942e-06)
(-1.16717e-06 1.4417e-06 -6.30699e-06)
(1.76816e-06 2.26228e-06 -7.96766e-06)
(1.3815e-07 -1.34881e-07 -5.05143e-06)
(-7.19053e-07 -7.79206e-07 -7.01233e-06)
(1.32079e-06 3.09131e-07 -1.04891e-05)
(-3.67694e-06 5.81136e-07 -6.95086e-06)
(-1.10541e-06 1.29079e-06 -6.92108e-06)
(3.95545e-06 1.95561e-07 -5.93539e-06)
(-1.81712e-07 3.48251e-07 -7.27945e-06)
(3.14605e-08 6.02988e-08 -4.82213e-06)
(5.31669e-08 7.88405e-09 -5.07637e-06)
(4.00417e-07 7.18781e-09 -5.07371e-06)
(2.2015e-06 2.63945e-06 -6.68231e-06)
(-4.11293e-07 -1.55811e-06 -6.63478e-06)
(6.10079e-08 5.15847e-08 -6.18211e-06)
(-1.25085e-07 1.57525e-06 -6.72001e-06)
(1.35828e-06 5.00496e-08 -1.06603e-05)
(-3.24376e-06 -9.6462e-08 -6.7412e-06)
(-3.23478e-06 3.09701e-07 -6.82949e-06)
(6.49699e-06 5.34124e-08 -6.01476e-06)
(-1.28672e-07 1.6896e-06 -6.77459e-06)
(1.70518e-06 -2.56575e-06 -6.61324e-06)
(2.78653e-06 2.30361e-06 -7.22896e-06)
(9.23325e-08 6.18588e-08 -6.01914e-06)
(3.47969e-08 -5.44722e-08 -6.30854e-06)
(2.32462e-08 -6.22603e-09 -5.40457e-06)
(1.06187e-08 1.76754e-09 -3.79822e-06)
(2.92653e-09 5.042e-09 -2.52079e-06)
(-1.53062e-10 4.43198e-09 -1.57212e-06)
(-1.01132e-09 3.14536e-09 -9.21897e-07)
(-1.074e-09 2.08993e-09 -5.10407e-07)
(-8.41311e-10 1.2641e-09 -2.74421e-07)
(5.88503e-12 2.26238e-10 -1.78239e-07)
(-3.4866e-10 4.12904e-10 -1.40355e-07)
(-1.7285e-08 1.77667e-08 -1.03482e-07)
(-1.61968e-08 -6.11922e-09 -1.08823e-07)
(2.48281e-09 -3.07358e-09 -1.66165e-07)
(9.65766e-09 -1.22856e-08 -1.17861e-07)
(1.32266e-10 1.58045e-08 -9.96894e-08)
(1.37503e-08 -6.92583e-09 -1.14701e-07)
(-1.66415e-08 -1.45716e-08 -1.13053e-07)
(-1.38015e-09 -2.07741e-08 -1.55372e-07)
(-4.68233e-09 -2.30528e-08 -1.17668e-07)
(2.59775e-08 -8.31528e-10 -1.52483e-07)
(2.08263e-08 1.76166e-08 -1.12035e-07)
(5.12306e-09 -1.28731e-08 -1.1704e-07)
(1.65101e-08 1.33812e-09 -1.50376e-07)
(1.00338e-08 1.43647e-08 -1.1222e-07)
(7.36438e-09 -1.41905e-08 -1.15131e-07)
(1.77688e-08 6.3498e-10 -1.52053e-07)
(8.21418e-09 1.48698e-08 -1.14055e-07)
(8.89084e-09 -1.52947e-08 -1.13112e-07)
(1.80621e-08 -5.52558e-10 -1.52576e-07)
(7.00238e-09 1.37594e-08 -1.15256e-07)
(1.45484e-08 -1.66623e-08 -1.13421e-07)
(2.05618e-08 -1.43503e-09 -1.56313e-07)
(2.29211e-08 -4.6748e-09 -1.18272e-07)
(9.06517e-10 2.5735e-08 -1.53202e-07)
(-1.74631e-08 2.07892e-08 -1.1274e-07)
(5.10011e-10 -1.53502e-08 -1.00265e-07)
(1.23464e-08 9.78215e-09 -1.18232e-07)
(-1.57385e-08 7.56969e-09 -1.07554e-07)
(-1.76424e-08 -1.72982e-08 -1.03829e-07)
(3.19885e-09 2.61645e-09 -1.66574e-07)
(6.2197e-09 -1.61622e-08 -1.09105e-07)
(2.90915e-09 1.24162e-08 -1.08688e-07)
(-1.37338e-08 1.32855e-08 -1.02884e-07)
(-1.52334e-08 -1.4836e-08 -1.03863e-07)
(3.69161e-09 -2.14404e-10 -1.68323e-07)
(3.4216e-09 -1.31806e-08 -1.08918e-07)
(4.44428e-09 1.34079e-08 -1.08551e-07)
(-1.51054e-08 1.51791e-08 -1.03301e-07)
(-1.40108e-08 -1.30922e-08 -1.0354e-07)
(3.74702e-09 1.4453e-11 -1.6808e-07)
(1.80989e-09 -1.19855e-08 -1.08721e-07)
(7.71195e-09 1.59921e-08 -1.07309e-07)
(-1.53606e-08 -4.15723e-10 -9.99347e-08)
(2.03209e-08 1.74699e-11 -1.3662e-07)
(-4.84343e-08 5.46972e-08 -1.22411e-07)
(-6.30486e-08 -4.20178e-08 -1.42411e-07)
(7.26803e-08 5.99549e-08 -2.13109e-07)
(-1.0674e-07 -8.50268e-08 -2.7345e-07)
(-6.2139e-09 4.56453e-09 -1.47582e-07)
(-5.48637e-08 -3.6708e-08 -1.92213e-07)
(1.39768e-09 1.65968e-09 -1.19032e-07)
(4.62927e-08 4.39445e-09 -1.44521e-07)
(-1.0403e-08 -3.83702e-09 -8.8241e-08)
(4.43747e-08 1.35565e-08 -1.16472e-07)
(2.17004e-08 -2.68542e-08 -1.20947e-07)
(3.27771e-08 2.70093e-08 -1.13091e-07)
(-5.82329e-08 -5.21068e-08 -1.3498e-07)
(2.06559e-08 2.67153e-10 -1.41177e-07)
(-5.04343e-08 5.36111e-08 -1.29505e-07)
(4.32972e-08 -6.78667e-08 -2.03353e-07)
(5.62313e-08 7.07619e-08 -2.01436e-07)
(-8.95942e-08 -9.58831e-08 -2.57922e-07)
(8.59349e-09 6.39076e-10 -1.84681e-07)
(-7.62451e-08 9.50483e-08 -2.5803e-07)
(9.26123e-08 -1.32781e-07 -3.62499e-07)
(1.15308e-07 1.38023e-07 -3.62539e-07)
(-1.66483e-07 -1.87166e-07 -4.88312e-07)
(1.08273e-08 1.10367e-09 -3.47847e-07)
(-1.39742e-07 1.84131e-07 -4.89532e-07)
(1.81459e-07 -2.51962e-07 -6.7341e-07)
(2.2216e-07 2.61172e-07 -6.73614e-07)
(-3.05121e-07 -3.47334e-07 -8.96421e-07)
(1.94173e-08 1.7539e-09 -6.47413e-07)
(-2.5504e-07 3.41487e-07 -8.98183e-07)
(3.30555e-07 -4.53334e-07 -1.20188e-06)
(4.02396e-07 4.69338e-07 -1.20237e-06)
(-5.34058e-07 -6.06768e-07 -1.55703e-06)
(3.23147e-08 2.91082e-09 -1.14341e-06)
(-4.46498e-07 5.96506e-07 -1.56039e-06)
(5.59145e-07 -7.69521e-07 -2.02603e-06)
(6.82698e-07 7.96188e-07 -2.02803e-06)
(-8.88606e-07 -9.96355e-07 -2.54522e-06)
(5.02718e-08 4.90608e-09 -1.90176e-06)
(-7.44219e-07 9.78412e-07 -2.55206e-06)
(8.79339e-07 -1.23162e-06 -3.21801e-06)
(1.08414e-06 1.27334e-06 -3.22394e-06)
(-1.40136e-06 -1.53406e-06 -3.91404e-06)
(7.51355e-08 7.5368e-09 -2.97518e-06)
(-1.17139e-06 1.5011e-06 -3.92637e-06)
(1.28391e-06 -1.84987e-06 -4.8039e-06)
(1.60948e-06 1.90914e-06 -4.81794e-06)
(-2.06375e-06 -2.17905e-06 -5.66126e-06)
(1.1086e-07 1.11567e-08 -4.35954e-06)
(-1.70182e-06 2.11825e-06 -5.68353e-06)
(1.70197e-06 -2.5739e-06 -6.63755e-06)
(2.1187e-06 2.5947e-06 -6.65229e-06)
(-3.60927e-07 -1.56377e-06 -6.70929e-06)
(1.29997e-06 -1.18993e-08 -1.06591e-05)
(-3.2101e-06 -1.88506e-07 -6.73826e-06)
(-3.27423e-06 9.55571e-08 -6.71829e-06)
(6.52354e-06 -5.54548e-08 -6.03306e-06)
(-2.90558e-07 -2.67553e-09 -8.19663e-06)
(-3.09097e-07 1.37689e-08 -8.17865e-06)
(6.2976e-08 2.30026e-08 -5.07684e-06)
(4.35622e-07 2.02916e-09 -5.08143e-06)
(2.19303e-06 2.64219e-06 -6.67115e-06)
(-2.96838e-07 -1.55714e-06 -6.69022e-06)
(8.33543e-08 6.54796e-09 -6.13197e-06)
(-3.62805e-07 1.87473e-06 -6.80843e-06)
(1.24857e-06 -2.95998e-07 -1.06556e-05)
(-3.26332e-06 -1.36126e-07 -6.78389e-06)
(-3.22006e-06 1.1907e-07 -6.70961e-06)
(6.48346e-06 -1.0912e-07 -6.04873e-06)
(-1.75139e-07 1.56461e-06 -6.68078e-06)
(1.70393e-06 -2.6028e-06 -6.64395e-06)
(5.81641e-08 1.64005e-08 -6.17711e-06)
(5.49437e-08 1.12925e-08 -6.161e-06)
(2.74855e-08 3.24011e-08 -5.39453e-06)
(1.39281e-08 1.65819e-08 -3.8006e-06)
(4.79859e-09 6.15427e-09 -2.52528e-06)
(6.80165e-10 1.36515e-09 -1.57526e-06)
(-6.93946e-10 -3.50549e-10 -9.23654e-07)
(-9.77447e-10 -8.16981e-10 -5.11284e-07)
(-7.91009e-10 -7.35547e-10 -2.74833e-07)
(-6.806e-12 3.38641e-11 -1.78499e-07)
(-3.47397e-10 -3.2736e-10 -1.40625e-07)
(1.32527e-08 -1.40602e-08 -1.03544e-07)
(-1.49627e-08 -1.51728e-08 -1.03618e-07)
(1.50712e-08 -1.52397e-08 -1.03553e-07)
(-1.31473e-08 -1.40256e-08 -1.03376e-07)
(1.33906e-10 3.8661e-09 -1.68078e-07)
(1.30851e-08 4.04953e-09 -1.08527e-07)
(-1.19387e-08 2.0393e-09 -1.08735e-07)
(6.48877e-11 -1.79494e-08 -1.03253e-07)
(-1.3789e-08 7.71344e-09 -1.15255e-07)
(4.30793e-11 -1.74235e-08 -1.75558e-07)
(-1.29335e-08 4.00391e-09 -1.08533e-07)
(4.08328e-11 3.8753e-09 -1.68217e-07)
(1.20736e-08 2.10151e-09 -1.08909e-07)
(4.77755e-10 -1.72044e-08 -1.74329e-07)
(1.27779e-08 5.15087e-09 -1.17125e-07)
(-1.1261e-09 1.61015e-08 -1.50394e-07)
(-1.4021e-08 9.77066e-09 -1.1242e-07)
(-1.29578e-11 -1.79591e-08 -1.03366e-07)
(1.38257e-08 7.7499e-09 -1.15325e-07)
(1.07376e-11 1.75044e-08 -1.50495e-07)
(3.18134e-11 2.45719e-08 -8.22657e-08)
(2.63359e-08 2.71836e-08 -1.16862e-07)
(-5.21179e-08 -5.30976e-08 -1.29606e-07)
(5.22454e-08 -5.30602e-08 -1.2947e-07)
(-5.12665e-08 -5.68075e-08 -1.351e-07)
(6.98866e-08 5.34746e-08 -2.01561e-07)
(-9.46658e-08 -8.60353e-08 -2.58099e-07)
(1.36307e-07 1.09498e-07 -3.62861e-07)
(-1.84663e-07 -1.58782e-07 -4.88534e-07)
(2.57763e-07 2.10844e-07 -6.74282e-07)
(-3.42602e-07 -2.9027e-07 -8.96616e-07)
(4.63102e-07 3.82001e-07 -1.20358e-06)
(-5.98493e-07 -5.07526e-07 -1.55727e-06)
(7.85624e-07 6.48291e-07 -2.03016e-06)
(-9.82579e-07 -8.44373e-07 -2.54537e-06)
(1.25677e-06 1.03033e-06 -3.22803e-06)
(-1.51269e-06 -1.3338e-06 -3.91299e-06)
(1.88607e-06 1.53467e-06 -4.82617e-06)
(-2.15016e-06 -1.97423e-06 -5.65512e-06)
(2.61168e-06 2.11747e-06 -6.70001e-06)
(-1.54667e-06 -3.6145e-07 -6.63009e-06)
(4.01927e-08 1.38103e-06 -1.0666e-05)
(1.56866e-06 -2.01143e-07 -6.75048e-06)
(4.6141e-08 6.72237e-08 -6.18143e-06)
(-2.54227e-06 1.83377e-06 -6.6233e-06)
(2.09621e-06 -1.81637e-06 -5.69995e-06)
(1.27758e-08 1.16042e-07 -4.36315e-06)
(-1.82773e-06 1.39122e-06 -4.80426e-06)
(1.48314e-06 -1.26074e-06 -3.93343e-06)
(7.51569e-09 7.74907e-08 -2.97772e-06)
(-1.2171e-06 9.5414e-07 -3.22099e-06)
(9.66017e-07 -8.03722e-07 -2.55474e-06)
(4.43045e-09 5.13619e-08 -1.90323e-06)
(-7.60549e-07 6.0616e-07 -2.02839e-06)
(5.88753e-07 -4.82691e-07 -1.56139e-06)
(2.51033e-09 3.2811e-08 -1.14418e-06)
(-4.48085e-07 3.58063e-07 -1.20336e-06)
(3.37025e-07 -2.75533e-07 -8.98549e-07)
(1.439e-09 1.96359e-08 -6.47813e-07)
(-2.4908e-07 1.96714e-07 -6.74414e-07)
(1.81765e-07 -1.50486e-07 -4.8956e-07)
(8.81003e-10 1.09378e-08 -3.48048e-07)
(-1.31303e-07 1.00531e-07 -3.6322e-07)
(9.37863e-08 -8.14919e-08 -2.57908e-07)
(5.33424e-10 8.63189e-09 -1.8474e-07)
(-6.69997e-08 4.6941e-08 -2.03721e-07)
(1.41545e-10 -4.82432e-09 -1.46439e-07)
(6.73115e-08 4.69691e-08 -2.03683e-07)
(-9.33193e-08 -8.14158e-08 -2.58038e-07)
(-2.93902e-10 8.64157e-09 -1.84838e-07)
(-6.95179e-08 5.36834e-08 -2.01744e-07)
(5.1428e-08 -5.66097e-08 -1.35235e-07)
(-1.40764e-10 2.07224e-08 -1.41411e-07)
(-2.65043e-08 3.17205e-08 -1.13111e-07)
(-1.74538e-09 2.24176e-08 -8.30945e-08)
(2.67884e-08 2.19491e-08 -1.216e-07)
(-5.40444e-08 -4.96793e-08 -1.22851e-07)
(6.67864e-08 4.25329e-08 -2.037e-07)
(-9.33907e-08 -7.71485e-08 -2.57519e-07)
(1.29487e-07 9.63862e-08 -3.62427e-07)
(-1.78804e-07 -1.42148e-07 -4.8994e-07)
(2.46419e-07 1.90883e-07 -6.75377e-07)
(-3.2978e-07 -2.61103e-07 -8.99009e-07)
(4.44726e-07 3.48645e-07 -1.20843e-06)
(-5.74406e-07 -4.59159e-07 -1.56174e-06)
(7.58191e-07 5.92019e-07 -2.04131e-06)
(-9.40657e-07 -7.70148e-07 -2.55353e-06)
(1.22231e-06 9.40456e-07 -3.25453e-06)
(-1.44047e-06 -1.22024e-06 -3.91547e-06)
(1.85219e-06 1.39658e-06 -4.88704e-06)
(-2.0187e-06 -1.75273e-06 -5.61296e-06)
(2.5726e-06 1.86683e-06 -6.74548e-06)
(-1.52885e-06 -1.90121e-07 -6.67685e-06)
(-3.86899e-07 1.03925e-06 -1.0556e-05)
(6.38037e-07 -7.6192e-07 -7.10947e-06)
(6.95026e-08 1.06893e-07 -6.00335e-06)
(-2.39685e-06 2.58644e-06 -7.25918e-06)
(1.8448e-06 -2.5563e-06 -6.18278e-06)
(1.289e-08 1.43586e-07 -4.24732e-06)
(-1.67156e-06 2.02501e-06 -5.23542e-06)
(1.34187e-06 -1.71509e-06 -4.23112e-06)
(-7.704e-09 8.8305e-08 -2.8942e-06)
(-1.07744e-06 1.36976e-06 -3.48718e-06)
(8.65438e-07 -1.06592e-06 -2.72986e-06)
(-9.82474e-09 5.45036e-08 -1.84493e-06)
(-6.67717e-07 8.59043e-07 -2.18676e-06)
(5.22842e-07 -6.34759e-07 -1.66256e-06)
(-7.54715e-09 3.39176e-08 -1.10751e-06)
(-3.93545e-07 5.08196e-07 -1.29518e-06)
(2.99024e-07 -3.60702e-07 -9.54716e-07)
(-5.79021e-09 2.00527e-08 -6.26375e-07)
(-2.18809e-07 2.83279e-07 -7.23606e-07)
(1.62534e-07 -1.95318e-07 -5.18456e-07)
(-4.37536e-09 1.13306e-08 -3.36087e-07)
(-1.15167e-07 1.48813e-07 -3.87406e-07)
(8.51723e-08 -1.04726e-07 -2.73632e-07)
(-3.55359e-09 9.04122e-09 -1.77746e-07)
(-5.86622e-08 7.20609e-08 -2.13186e-07)
(4.18449e-08 -6.22735e-08 -1.42657e-07)
(1.09896e-10 2.04261e-08 -1.37004e-07)
(-1.33133e-08 4.44021e-08 -1.16821e-07)
(2.16546e-08 3.83626e-08 -1.1806e-07)
(3.61173e-08 -1.90812e-08 -1.07846e-07)
(-3.1032e-09 4.64247e-08 -1.44803e-07)
(3.27601e-09 -1.03617e-08 -8.8209e-08)
(-6.80988e-09 5.0891e-09 -1.01e-07)
(2.15436e-08 5.08984e-08 -1.27471e-07)
(-6.70642e-08 -4.50859e-08 -1.2004e-07)
(6.5299e-08 5.31627e-08 -2.0641e-07)
(-1.08094e-07 -6.79975e-08 -2.65816e-07)
(-7.28145e-08 1.08929e-07 -2.5754e-07)
(-9.12734e-08 -9.69655e-08 -2.5777e-07)
(8.94993e-09 -1.12336e-09 -1.83271e-07)
(4.56163e-08 -8.12132e-08 -2.00781e-07)
(5.10169e-08 6.94568e-08 -2.04668e-07)
(-5.71592e-08 -5.55811e-08 -1.24951e-07)
(1.97154e-08 1.10417e-09 -1.40923e-07)
(-5.01681e-08 5.72923e-08 -1.37267e-07)
(-5.5433e-09 2.09276e-09 -1.46016e-07)
(9.60124e-10 -2.62901e-10 -1.42297e-07)
(-1.78532e-08 -1.4374e-08 -1.67126e-07)
(1.33188e-09 1.24762e-09 -1.24585e-07)
(-8.11125e-10 -1.13319e-09 -1.18696e-07)
(-1.80085e-08 7.46593e-10 -1.73926e-07)
(-1.37219e-09 -5.54051e-10 -1.55301e-07)
(-5.37199e-09 -3.17084e-10 -1.46502e-07)
(-5.199e-08 5.32859e-08 -1.33967e-07)
(-5.64595e-08 -5.3433e-08 -1.30403e-07)
(5.24848e-08 6.89064e-08 -2.03791e-07)
(-8.87912e-08 -9.50046e-08 -2.58043e-07)
(-6.03642e-09 2.27825e-10 -2.53868e-07)
(1.11582e-07 1.3481e-07 -3.63444e-07)
(-1.65523e-07 -1.84186e-07 -4.8964e-07)
(2.18234e-07 2.56e-07 -6.74703e-07)
(-3.03753e-07 -3.41382e-07 -8.98522e-07)
(-2.30745e-08 1.35447e-09 -8.55026e-07)
(3.97882e-07 4.6119e-07 -1.20438e-06)
(-5.32288e-07 -5.95729e-07 -1.56035e-06)
(6.76255e-07 7.84084e-07 -2.03178e-06)
(-8.86288e-07 -9.76212e-07 -2.54989e-06)
(-1.57149e-08 3.56094e-09 -2.35768e-06)
(1.0726e-06 1.25581e-06 -3.22993e-06)
(-1.39204e-06 -1.49732e-06 -3.91812e-06)
(1.58197e-06 1.88081e-06 -4.82227e-06)
(-2.02029e-06 -2.11812e-06 -5.66671e-06)
(4.19063e-07 -3.97965e-09 -5.08164e-06)
(6.21832e-08 3.752e-09 -5.07667e-06)
(7.18547e-09 6.03435e-09 -3.57714e-06)
(1.14868e-08 1.73207e-08 -3.58238e-06)
(-1.95e-08 8.27286e-09 -2.37678e-06)
(-1.30151e-08 9.0008e-09 -2.36614e-06)
(1.11375e-06 1.27006e-06 -3.24936e-06)
(-1.42941e-06 -1.49752e-06 -3.92419e-06)
(8.4958e-08 6.49726e-09 -2.98145e-06)
(-1.15938e-06 1.78171e-06 -3.96848e-06)
(1.1967e-06 -2.15102e-06 -4.80427e-06)
(1.65436e-06 1.92037e-06 -4.86379e-06)
(-2.02818e-06 -2.09861e-06 -5.64127e-06)
(1.37824e-07 1.90599e-08 -4.36344e-06)
(-1.78405e-06 2.56508e-06 -5.77673e-06)
(1.51036e-06 -2.88971e-06 -6.57688e-06)
(3.03746e-06 1.86085e-06 -7.44845e-06)
(-2.25948e-07 -1.43792e-06 -6.53748e-06)
(1.75309e-07 -2.7549e-06 -1.077e-05)
(-3.52191e-06 -2.17509e-07 -6.96249e-06)
(-3.27735e-06 9.01821e-09 -6.59066e-06)
(6.21427e-06 -9.86786e-07 -6.26204e-06)
(-4.28431e-07 -2.68246e-07 -8.02586e-06)
(5.52144e-08 3.43977e-08 -4.82984e-06)
(1.01977e-07 1.36426e-06 -4.41002e-06)
(-1.40384e-06 1.64794e-06 -5.99461e-06)
(2.65351e-07 1.02375e-07 -3.62634e-06)
(7.54605e-07 -2.09503e-06 -4.85543e-06)
(-7.85413e-07 1.34994e-06 -4.0165e-06)
(4.81627e-08 -7.26378e-09 -2.41888e-06)
(5.37624e-07 -1.15199e-06 -3.25015e-06)
(-4.76524e-07 8.75589e-07 -2.55369e-06)
(-1.67987e-10 -1.89176e-08 -1.53055e-06)
(3.22321e-07 -6.71331e-07 -2.04736e-06)
(-2.96578e-07 5.36498e-07 -1.55116e-06)
(-5.30616e-09 -1.23277e-08 -9.17649e-07)
(1.75711e-07 -3.79194e-07 -1.2074e-06)
(-1.68697e-07 3.06801e-07 -8.81776e-07)
(-7.18854e-09 -9.91635e-09 -5.17737e-07)
(1.00982e-07 -2.09633e-07 -6.74342e-07)
(-9.00482e-08 1.72262e-07 -4.75932e-07)
(-7.1547e-09 -7.1346e-09 -2.7723e-07)
(5.6138e-08 -1.05272e-07 -3.56467e-07)
(-4.02702e-08 9.33149e-08 -2.49235e-07)
(-6.05082e-09 -7.17109e-09 -1.46991e-07)
(3.84879e-08 -5.17194e-08 -1.92092e-07)
(1.25672e-08 1.05963e-08 -1.27747e-07)
(8.52795e-09 1.89319e-08 -1.22339e-07)
(-9.51887e-10 -3.47172e-08 -1.76315e-07)
(-4.74539e-10 -3.52071e-09 -1.74277e-07)
(2.40055e-08 6.54361e-08 -2.24276e-07)
(-1.00016e-08 -8.62942e-08 -3.26413e-07)
(1.37992e-07 9.61529e-08 -3.66587e-07)
(-2.00732e-07 -1.30622e-07 -5.03473e-07)
(2.70946e-07 1.80448e-07 -6.88445e-07)
(-3.69542e-07 -2.41756e-07 -9.24066e-07)
(-2.38448e-07 3.90762e-07 -8.96556e-07)
(-3.12067e-07 -3.44051e-07 -9.00672e-07)
(1.9843e-08 -2.13577e-09 -6.46292e-07)
(1.78351e-07 -2.94113e-07 -6.76357e-07)
(2.2417e-07 2.55744e-07 -6.75673e-07)
(-1.69772e-07 -1.8627e-07 -4.90723e-07)
(1.10901e-08 -1.81477e-09 -3.46816e-07)
(-1.30107e-07 2.10422e-07 -4.87088e-07)
(-9.94426e-09 1.152e-09 -4.71713e-07)
(-4.99793e-09 -5.35118e-09 -4.55023e-07)
(-1.96175e-09 -2.76692e-09 -2.431e-07)
(-3.86964e-09 -5.42285e-09 -2.1055e-07)
(-6.91443e-09 -2.02585e-08 -2.55986e-07)
(5.09816e-09 -2.60532e-09 -2.3601e-07)
(2.50056e-09 2.03625e-09 -2.24856e-07)
(-5.31614e-09 -5.40337e-10 -2.68252e-07)
(-3.19972e-08 5.12001e-09 -2.74888e-07)
(-1.02343e-08 4.41415e-09 -1.59875e-07)
(2.28643e-08 1.83998e-09 -1.24371e-07)
(3.0644e-08 -2.67186e-09 -8.59277e-08)
(2.651e-08 4.18666e-08 -1.46463e-07)
(9.62026e-09 1.32566e-08 -8.34322e-08)
(4.77965e-08 2.04145e-09 -1.25718e-07)
(1.60934e-08 1.09127e-08 -1.5359e-07)
(2.06796e-08 -2.57625e-09 -1.99051e-07)
(2.27494e-08 -9.94134e-09 -3.66118e-07)
(-2.5286e-08 -7.37093e-09 -5.04527e-07)
(-5.77367e-08 7.38949e-09 -5.06859e-07)
(-9.64133e-08 1.25332e-08 -9.14015e-07)
(-4.9586e-08 -1.2964e-08 -9.20328e-07)
(3.17778e-08 -1.98401e-08 -6.7787e-07)
(-2.7781e-08 -1.69186e-07 -6.16167e-07)
(5.32383e-09 -1.11569e-08 -6.22328e-07)
(6.10987e-08 2.12389e-07 -8.08754e-07)
(-5.43114e-08 -3.08154e-07 -1.09976e-06)
(4.93912e-07 3.23991e-07 -1.23912e-06)
(-6.48196e-07 -4.21751e-07 -1.60539e-06)
(8.43298e-07 5.54276e-07 -2.09927e-06)
(-1.08784e-06 -6.93082e-07 -2.62781e-06)
(-7.10757e-07 1.13725e-06 -2.56321e-06)
(-9.13126e-07 -9.80181e-07 -2.55741e-06)
(5.33391e-08 -2.49514e-11 -1.90323e-06)
(5.38273e-07 -8.93312e-07 -2.03808e-06)
(6.9889e-07 7.87829e-07 -2.0398e-06)
(-5.47746e-07 -5.99275e-07 -1.56448e-06)
(3.34441e-08 -1.90878e-09 -1.14286e-06)
(-4.20513e-07 6.85843e-07 -1.56199e-06)
(-2.06772e-08 5.79852e-09 -1.4692e-06)
(-7.90492e-09 -9.52789e-09 -1.40569e-06)
(-7.58017e-09 -7.9059e-09 -8.22749e-07)
(-9.86494e-09 4.66108e-09 -7.21597e-07)
(-2.40786e-08 -7.29011e-08 -8.59843e-07)
(-1.07086e-09 -3.63701e-08 -8.3283e-07)
(-6.99878e-09 -2.57132e-08 -7.93573e-07)
(-1.45818e-08 -4.19902e-08 -4.75217e-07)
(-2.03902e-10 -1.79632e-08 -4.45703e-07)
(-2.63922e-09 -1.29525e-08 -4.2541e-07)
(3.77203e-08 1.16866e-07 -4.35124e-07)
(2.73715e-09 -6.1649e-09 -3.32409e-07)
(-6.60447e-09 -2.66437e-09 -3.96669e-07)
(-6.3868e-10 1.92634e-08 -3.75382e-07)
(1.27743e-09 -3.24073e-08 -2.78258e-07)
(4.45091e-10 -1.06165e-08 -1.61555e-07)
(-1.40723e-09 2.57257e-08 -1.24944e-07)
(2.76121e-09 4.73166e-08 -1.24876e-07)
(-3.23993e-08 8.48131e-08 -1.14752e-07)
(-3.1698e-09 2.5101e-09 -1.4682e-07)
(-1.7992e-09 -4.56671e-10 -1.18696e-07)
(-5.52001e-10 9.10762e-09 -2.03092e-07)
(-4.76443e-10 4.7842e-09 -2.0287e-07)
(9.52343e-08 -8.56812e-08 -2.58261e-07)
(5.74483e-10 -6.21619e-09 -2.52944e-07)
(-1.35602e-07 1.10146e-07 -3.63053e-07)
(1.32075e-07 1.00513e-07 -3.63281e-07)
(-1.80638e-07 -1.50138e-07 -4.89613e-07)
(-2.10631e-10 1.09752e-08 -3.48302e-07)
(1.8616e-07 -1.58613e-07 -4.89127e-07)
(1.42301e-09 -1.24233e-08 -4.71786e-07)
(-2.5643e-07 2.1187e-07 -6.74583e-07)
(2.50943e-07 1.96892e-07 -6.74966e-07)
(-3.34603e-07 -2.74678e-07 -8.98242e-07)
(2.58964e-10 1.97529e-08 -6.48462e-07)
(3.45972e-07 -2.91182e-07 -8.98613e-07)
(2.75417e-09 -2.09726e-08 -8.54072e-07)
(-4.6055e-07 3.82705e-07 -1.20411e-06)
(4.52219e-07 3.59194e-07 -1.20544e-06)
(-5.83896e-07 -4.81224e-07 -1.55986e-06)
(1.35447e-09 3.30926e-08 -1.14567e-06)
(6.05498e-07 -5.11363e-07 -1.56243e-06)
(5.10895e-09 -2.50967e-08 -1.46254e-06)
(-7.81209e-07 6.46437e-07 -2.03071e-06)
(7.6893e-07 6.10342e-07 -2.03422e-06)
(-9.57e-07 -8.02401e-07 -2.54928e-06)
(3.68617e-09 5.20707e-08 -1.9062e-06)
(9.9603e-07 -8.55327e-07 -2.55732e-06)
(8.20444e-09 -2.51058e-09 -2.3582e-06)
(-1.24986e-06 1.0163e-06 -3.22522e-06)
(1.23205e-06 9.68303e-07 -3.23615e-06)
(-1.46802e-06 -1.26531e-06 -3.91546e-06)
(8.31208e-09 7.91042e-08 -2.9823e-06)
(1.53323e-06 -1.3549e-06 -3.93911e-06)
(6.42491e-09 1.13642e-07 -3.57687e-06)
(-1.874e-06 1.4736e-06 -4.80511e-06)
(1.84741e-06 1.43497e-06 -4.83802e-06)
(-2.07693e-06 -1.85101e-06 -5.65443e-06)
(1.3886e-08 1.1874e-07 -4.36496e-06)
(2.16061e-06 -1.97718e-06 -5.70355e-06)
(-1.58952e-08 5.05757e-07 -5.07146e-06)
(-2.58722e-06 1.94289e-06 -6.6237e-06)
(2.55087e-06 1.94259e-06 -6.68509e-06)
(-1.55531e-06 -2.63131e-07 -6.70279e-06)
(-3.863e-09 6.84373e-08 -6.17075e-06)
(1.54207e-06 -3.24358e-07 -6.70662e-06)
(-1.10833e-07 6.49163e-06 -6.08394e-06)
(-2.67699e-07 -3.22456e-06 -6.75949e-06)
(-2.01563e-07 -3.3362e-06 -6.52155e-06)
(-3.25803e-07 4.85834e-06 -5.84457e-06)
(-3.16397e-06 1.28419e-06 -7.93762e-06)
(6.45964e-07 4.44062e-07 -5.15427e-06)
(3.98915e-07 -3.69011e-06 -6.60721e-06)
(-2.40418e-07 -8.82027e-07 -4.92573e-06)
(-4.81022e-07 -5.382e-07 -4.71064e-06)
(-1.45903e-07 1.5323e-06 -5.6328e-06)
(-2.39043e-06 -1.61118e-06 -5.60014e-06)
(5.56342e-07 -3.11292e-08 -5.12423e-06)
(-1.04369e-06 7.95493e-08 -5.50883e-06)
(-1.37132e-06 -3.21795e-07 -5.56635e-06)
(-2.34144e-07 -3.57314e-07 -4.7376e-06)
(-4.10562e-07 -7.64296e-08 -3.95108e-06)
(-5.47278e-07 9.48837e-08 -3.8761e-06)
(-2.85075e-07 4.92909e-08 -2.53342e-06)
(-1.53674e-07 -2.4304e-08 -2.57703e-06)
(7.25692e-08 -5.76029e-08 -1.99995e-06)
(-8.30919e-08 -1.95097e-08 -1.58454e-06)
(-1.61196e-07 2.3706e-08 -1.56497e-06)
(-1.4885e-07 6.37789e-09 -1.55306e-06)
(-8.85749e-08 2.94756e-09 -9.10046e-07)
(-5.46753e-08 1.17058e-09 -5.07176e-07)
(-3.24569e-08 3.7577e-12 -2.76413e-07)
(-1.01978e-08 -6.85658e-10 -1.60251e-07)
(2.74654e-08 -2.50208e-09 -1.24052e-07)
(2.66368e-08 -1.14907e-09 -8.34499e-08)
(2.72542e-08 2.77784e-08 -1.20396e-07)
(3.13046e-08 -2.78264e-08 -1.06323e-07)
(4.3549e-08 1.19785e-10 -1.25614e-07)
(4.16741e-08 1.8614e-10 -1.26806e-07)
(2.90556e-08 -2.84031e-08 -1.14026e-07)
(2.92842e-08 2.79439e-08 -1.17779e-07)
(2.06221e-08 -8.87394e-11 -1.41696e-07)
(-1.81156e-08 8.83763e-11 -1.03129e-07)
(5.55436e-09 -1.0927e-10 -1.26354e-07)
(-2.04335e-09 -2.1027e-09 -1.18673e-07)
(-1.41079e-09 -1.34989e-09 -1.18793e-07)
(5.04758e-09 5.04349e-09 -1.26676e-07)
(-1.57774e-08 1.48835e-10 -1.00061e-07)
(-3.58977e-11 5.79233e-09 -1.25941e-07)
(-2.26054e-12 -2.05855e-09 -1.19165e-07)
(-2.04023e-11 -2.5425e-09 -1.1984e-07)
(5.78059e-11 -1.78572e-10 -1.42005e-07)
(-1.00829e-08 9.74882e-09 -1.02016e-07)
(-1.17358e-08 -1.16752e-08 -1.03109e-07)
(-1.17052e-08 1.18995e-08 -1.0296e-07)
(-1.01328e-08 -9.52634e-09 -1.02142e-07)
(1.01959e-08 -9.71689e-09 -1.01871e-07)
(-8.0592e-09 -7.96434e-09 -1.00928e-07)
(4.80016e-10 4.74768e-10 -1.7122e-07)
(1.19072e-08 1.18585e-08 -1.02823e-07)
(-9.65082e-09 1.03201e-08 -1.02076e-07)
(-9.62446e-09 -1.01432e-08 -1.02092e-07)
(4.95377e-10 -2.97342e-10 -1.71344e-07)
(1.1802e-08 -1.17768e-08 -1.02965e-07)
(5.29156e-11 5.98169e-11 -1.43404e-07)
(1.18838e-10 1.33332e-10 -1.81426e-07)
(1.28888e-10 1.09521e-10 -1.79822e-07)
(1.14196e-10 -1.3089e-09 -1.5565e-07)
(-6.68594e-10 -1.38021e-09 -1.54882e-07)
(2.23957e-10 -5.96705e-09 -1.45523e-07)
(-2.84266e-10 -5.38732e-09 -2.56417e-07)
(-2.08273e-10 -1.07395e-08 -4.79301e-07)
(4.17717e-10 -1.698e-08 -8.66033e-07)
(2.17147e-09 -2.16366e-08 -1.47775e-06)
(6.07374e-09 -1.61047e-08 -2.37158e-06)
(6.07925e-10 -6.68093e-09 -2.25973e-06)
(-9.88852e-09 8.36353e-08 -2.00635e-06)
(-4.8554e-08 -2.19466e-07 -2.37865e-06)
(1.8285e-08 -9.77955e-08 -2.31437e-06)
(-2.74441e-08 -3.21072e-08 -2.20758e-06)
(1.49495e-07 6.56308e-07 -2.33945e-06)
(-2.08502e-07 -8.09549e-07 -2.96751e-06)
(1.37201e-06 8.98393e-07 -3.37634e-06)
(-1.72599e-06 -1.09207e-06 -4.00984e-06)
(2.13787e-06 1.36511e-06 -5.19075e-06)
(-1.37389e-08 -6.65677e-08 -4.39278e-06)
(-6.05982e-07 -1.289e-06 -4.38459e-06)
(-1.208e-07 -6.88957e-08 -3.3382e-06)
(1.69211e-07 1.09338e-06 -3.69221e-06)
(9.30993e-09 -3.46508e-08 -2.92588e-06)
(6.79593e-08 -1.23435e-07 -3.16887e-06)
(1.00091e-07 1.97469e-08 -3.2113e-06)
(-2.64227e-07 1.35473e-08 -2.50398e-06)
(-4.927e-07 2.75945e-08 -3.80665e-06)
(-9.7189e-07 3.29656e-08 -5.448e-06)
(-2.27294e-06 -3.0748e-08 -7.42496e-06)
(-2.34259e-06 -3.64494e-07 -7.41799e-06)
(-5.26765e-06 1.25589e-06 -7.4843e-06)
(-2.0827e-06 -6.0749e-07 -6.21435e-06)
(-1.76825e-06 -2.04908e-06 -5.67383e-06)
(-2.46412e-08 -3.27666e-07 -6.04755e-06)
(-6.78706e-07 -4.14337e-07 -6.81529e-06)
(6.51843e-07 -4.97847e-06 -5.86464e-06)
(-4.69689e-06 -1.41529e-06 -6.75995e-06)
(-2.87257e-06 1.8463e-07 -9.89747e-06)
(-1.40285e-06 -2.11869e-06 -8.92582e-06)
(2.04262e-06 1.52551e-06 -8.5795e-06)
(1.6364e-07 7.77063e-08 -8.88657e-06)
(8.51381e-08 6.5943e-08 -5.61152e-06)
(-2.08018e-06 1.84217e-06 -7.1768e-06)
(2.18977e-06 1.54135e-06 -7.5188e-06)
(1.52577e-08 1.94675e-07 -9.06608e-06)
(-2.73092e-07 -1.78163e-07 -5.76141e-06)
(-2.26746e-06 2.02156e-06 -7.41072e-06)
(2.19592e-06 1.81923e-06 -7.54725e-06)
(4.46427e-09 2.05577e-07 -9.10908e-06)
(-3.01771e-07 -2.12422e-07 -5.78675e-06)
(-2.21456e-06 1.84065e-06 -7.31897e-06)
(2.18932e-06 2.06905e-06 -7.64546e-06)
(1.71972e-08 1.92072e-07 -9.09531e-06)
(-4.83209e-07 -4.74198e-07 -5.93401e-06)
(-2.11467e-06 1.53695e-06 -7.26595e-06)
(1.56304e-06 2.09327e-06 -8.1647e-06)
(-1.35989e-06 -7.51113e-07 -1.13637e-05)
(1.19266e-06 1.23028e-06 -9.16811e-06)
(9.10539e-07 -1.06675e-06 -8.97199e-06)
(2.56442e-06 1.1421e-06 -1.13959e-05)
(-1.20643e-06 -4.47052e-06 -1.12028e-05)
(-6.66991e-07 -2.41253e-06 -8.85165e-06)
(3.76186e-07 3.79416e-07 -6.42751e-06)
(1.43992e-06 -1.10549e-06 -8.98225e-06)
(-4.32787e-06 2.07314e-06 -7.81502e-06)
(-2.06179e-07 -1.31099e-07 -6.84977e-06)
(-2.50959e-06 -3.35312e-06 -7.3649e-06)
(2.47745e-06 1.96068e-06 -7.99515e-06)
(2.39883e-06 -3.61258e-08 -6.36887e-06)
(2.18983e-06 -2.31062e-06 -8.30805e-06)
(2.77116e-06 -2.30253e-06 -9.5683e-06)
(1.20936e-06 -3.30032e-06 -6.37494e-06)
(1.7875e-07 1.0715e-06 -7.40068e-06)
(9.95214e-07 -1.71308e-06 -6.08287e-06)
(1.44331e-06 -1.15939e-06 -6.31232e-06)
(2.24893e-06 1.75676e-06 -7.97017e-06)
(-7.30161e-07 -2.98681e-06 -6.60639e-06)
(1.93512e-07 -4.67483e-07 -4.86206e-06)
(1.25183e-06 1.84626e-06 -5.8131e-06)
(-7.46411e-07 -1.80417e-06 -4.78071e-06)
(1.45512e-08 -1.6427e-07 -3.4556e-06)
(7.59727e-07 1.34012e-06 -3.93494e-06)
(-5.0962e-07 -1.08749e-06 -3.21375e-06)
(1.98588e-09 -8.60843e-08 -2.27054e-06)
(4.79244e-07 8.69244e-07 -2.53061e-06)
(-3.06916e-07 -6.53502e-07 -2.02793e-06)
(3.14597e-09 -5.79955e-08 -1.40891e-06)
(2.93296e-07 5.27575e-07 -1.53933e-06)
(-1.762e-07 -3.80922e-07 -1.20423e-06)
(2.51411e-09 -3.778e-08 -8.21585e-07)
(1.70097e-07 3.03428e-07 -8.83632e-07)
(-9.72203e-08 -2.11118e-07 -6.73309e-07)
(9.35993e-10 -2.11231e-08 -4.52899e-07)
(9.14137e-08 1.66331e-07 -4.78782e-07)
(-5.47266e-08 -1.11524e-07 -3.5881e-07)
(-2.32523e-09 -7.08275e-09 -2.353e-07)
(4.32339e-08 9.11593e-08 -2.52623e-07)
(-3.62032e-08 -5.46934e-08 -1.9233e-07)