/*--------------------------------*- C++ -*----------------------------------*\
| =========                 |                                                 |
| \\      /  F ield         | OpenFOAM: The Open Source CFD Toolbox           |
|  \\    /   O peration     | Version:  2306                                  |
|   \\  /    A nd           | Website:  www.openfoam.com                      |
|    \\/     M anipulation  |                                                 |
\*---------------------------------------------------------------------------*/
FoamFile
{
    version     2.0;
    format      ascii;
    arch        "LSB;label=32;scalar=64";
    class       volScalarField;
    location    "1.4";
    object      gradTx;
}
// * * * * * * * * * * * * * * * * * * * * * * * * * * * * * * * * * * * * * //

dimensions      [0 -1 0 1 0 0 0];

internalField   nonuniform List<scalar> 
5322
(
-0.251518
0.00574613
0.00699964
0.000792013
-0.000137947
-0.000178731
-2.88716e-06
0.000125314
7.51302e-05
-0.000209506
-0.00100652
0.0109453
0.0168651
-0.232302
-0.00615672
0.404289
-0.317691
-0.00501705
-0.242394
0.156263
-0.212459
0.18482
-0.195491
0.196597
-0.199148
0.191349
-0.191771
0.199002
-0.196048
0.196169
-0.186154
0.211562
-0.158933
0.242332
0.003492
0.304245
0.214502
-0.0855343
0.240425
-0.0138041
-0.228011
0.229296
-0.0138796
-0.243953
0.242441
-0.0083409
-0.259296
0.226441
-0.00572326
-0.271762
-0.268112
-0.389363
-0.121641
0.261063
-0.0166452
-0.431088
-0.0122489
0.411988
-0.0049402
-0.411683
-0.00177339
0.401228
-0.00231559
-0.404366
-0.000142772
0.395082
0.00501909
-0.400451
0.0172529
0.327944
0.0130362
-0.349961
0.39653
-0.410397
0.395075
-0.402321
0.40311
-0.402267
0.45794
-0.329948
0.161659
-0.213654
-0.138171
0.239834
0.0249137
-0.135867
0.158899
-0.427865
-0.161396
0.509842
-0.0219213
0.00953437
0.0175862
0.0794803
0.365458
-0.0849428
-0.0103465
-0.0418594
0.163838
-0.379399
-0.379797
0.848462
-0.0411548
0.281885
0.458825
-0.00567506
0.00277611
0.00379024
0.0022983
0.00112714
0.00044895
-0.000117197
-0.00117228
-0.00288016
0.0045365
-0.00152802
-0.133478
-0.131702
0.0139456
0.0839471
0.00476897
0.128066
-0.153179
-0.0114758
-0.0352785
0.237471
0.195342
0.0543236
0.152731
0.0987316
0.0750796
0.163977
0.0827932
0.0888231
0.166832
0.072482
0.13978
0.189648
0.214987
0.00923674
-0.157582
0.00869
0.10498
-0.127175
-0.13644
0.0195086
0.0563838
0.0310268
-0.106782
-0.117361
0.0219635
0.0349645
0.0421384
-0.115811
-0.109883
0.0221458
0.0229881
0.0667156
-0.127108
0.165855
-0.35752
-0.479224
0.413048
-0.483714
-0.0202534
-0.332806
0.0026854
0.324438
-0.0779176
0.386678
0.191681
0.285828
-0.42836
0.167151
-0.369092
0.24556
0.320147
-0.391592
0.00878535
-0.332928
0.293056
0.364784
-0.38771
-0.00239675
-0.324952
0.309318
0.377892
-0.387367
-0.000746648
-0.323238
0.314937
0.382475
-0.389758
8.64771e-05
-0.325378
0.31459
0.383441
-0.39564
0.000472936
-0.331128
0.309668
0.38164
-0.404582
0.00106041
-0.33842
0.299941
0.376595
-0.411759
0.00246902
-0.340389
0.281886
0.351901
-0.0767953
0.156523
-0.376598
-0.384046
0.853681
-0.0293519
-0.0321597
0.0196768
0.0857883
0.363098
-0.0670496
-0.00663449
-0.0747538
0.149099
-0.383713
-0.37741
0.84879
-0.0496132
0.281962
-0.0106636
0.00467429
0.00454621
0.00292517
0.00152342
0.000662565
-3.27479e-07
-0.00108331
-0.0026168
0.00452701
-0.00139983
0.106072
-0.117735
0.117321
-0.106568
0.000212473
0.106682
-0.100828
-0.000568273
-0.126995
7.01532e-05
-0.106708
-8.13018e-05
0.100567
0.00395594
0.118605
-0.00968454
-0.128233
0.000419934
0.126815
-0.000131759
-2.30161e-05
0.224632
-0.386119
0.385653
-0.381443
0.401559
-0.410868
0.429721
-0.428483
0.435379
-0.433647
0.437514
-0.435785
0.440035
-0.43677
0.443361
-0.43604
0.445276
-0.427722
0.439018
-0.235279
0.00495113
0.237492
0.00640204
-0.42828
0.416286
0.00215828
-0.432528
0.4261
0.00146366
-0.430944
0.42723
0.000968502
-0.427997
0.426053
0.000671496
-0.425458
0.423816
0.000699978
-0.42258
0.419134
0.00112555
-0.415207
0.404269
0.00128035
-0.386126
0.000226816
0.385993
-0.404523
-0.00181633
-0.400964
0.380864
-0.000715033
-0.226547
-0.0147188
0.230443
-0.39987
0.386115
-0.406633
0.408533
-0.415906
0.41551
-0.417512
0.418693
-0.418213
0.422472
-0.418342
0.428128
-0.415396
0.433756
-0.401084
0.430773
-0.231857
-0.0497838
0.100835
0.0127219
-0.399824
0.359745
0.00504264
-0.393712
0.38045
0.000725456
-0.381539
0.379897
-0.000464648
-0.376721
0.377057
-0.00065733
-0.375274
0.376185
-0.0019138
-0.374055
0.376666
-0.00485147
-0.368833
0.37163
-0.0112023
-0.343275
0.314302
0.00677949
-0.113899
0.193862
0.318784
0.0101635
0.0396773
-0.0582737
0.163103
-0.503102
0.381763
-0.478752
-0.322379
-0.398599
0.0103654
0.262464
0.290295
-0.417915
0.16162
-0.375059
-0.0278757
0.0200985
-0.151816
0.0129903
-0.00612827
-0.161067
0.0164284
-0.0260136
-0.380538
-0.412714
0.297785
-0.386177
0.00495562
0.352376
-0.384161
0.371055
-0.384615
0.00270997
0.378072
-0.387651
0.379527
-0.393998
0.0147165
0.377051
-0.401517
0.369696
-0.40295
0.083234
0.0194505
0.0124659
0.0131177
0.00630163
0.0154629
0.389733
-0.412011
0.00322786
-0.334182
0.275423
0.383974
-0.404432
0.00728243
-0.355088
0.246946
0.493546
-0.0580576
0.0093492
-0.411802
-0.380024
0.803372
-0.0498742
0.0133583
0.0224853
-0.245004
0.0560554
0.192534
-0.199257
0.0163843
0.206559
-0.187349
0.00260856
0.200994
-0.192166
-0.000342357
0.192138
-0.186452
-0.00496259
0.199927
-0.180286
-0.0122222
0.210789
-0.141823
-0.0204511
0.24916
0.094612
0.0699703
-0.0183962
-0.00957502
0.0981029
-0.0431334
0.441907
-0.472194
0.461514
-0.471333
-0.305149
-0.395689
-0.000902999
0.301981
0.381022
-0.395279
-0.00216135
-0.306277
0.00257805
0.000229086
0.00333996
-0.000319454
0.00656196
0.0253506
0.0234575
0.042596
-0.0124914
0.00671601
0.17743
0.281937
0.235146
0.0794842
0.357514
0.142305
0.0667391
0.0199197
0.0127118
-0.00581608
-0.00374343
0.00362997
0.00600909
-0.0561237
-0.000853391
0.0647211
-0.0597525
0.467524
-0.473683
0.470539
-0.483193
-0.316936
-0.405829
0.00115313
0.299817
0.391105
-0.399071
0.000169759
-0.308377
0.00447424
0.00198779
0.000503454
0.000344106
0.000853434
0.00153834
0.00243222
0.00195289
0.00524197
0.00797729
0.0760952
-0.00131964
-0.000496267
-0.00243806
0.000425964
0.00101903
-0.0100392
0.0233176
-0.268745
-0.000667706
0.0036983
0.000181539
-0.00363645
0.410933
-6.49001e-05
-0.429538
0.415161
-0.419168
-0.00147273
0.429109
1.13788e-05
-0.435317
0.422887
-0.423516
-0.000610812
0.434692
0.000255887
-0.437297
0.426284
-0.425232
3.29103e-05
0.437403
0.000481663
-0.439636
0.42955
-0.425627
0.000648267
0.439242
0.000402807
-0.442632
0.433356
-0.423405
0.00155254
0.438929
-0.00083292
-0.443478
0.435221
-0.413053
0.00246215
0.428016
-0.00376886
-0.435411
0.429257
-0.235629
-0.00028516
0.233978
-0.0143573
-0.0298829
-0.0313767
-0.032793
-0.410636
0.102409
0.091083
-0.0349482
-0.0720318
-0.0358818
-0.468544
0.0987253
-0.120026
-0.201028
-0.0735683
-0.0576916
-0.0604334
-0.0257734
-0.011536
0.00193351
-0.000525417
-0.00938517
-0.0116937
-0.00687383
-0.0132479
-0.0262109
0.00460637
0.208371
0.244324
0.239606
0.276068
0.341413
0.325044
0.254231
0.255905
0.166966
-0.148477
0.0479301
-0.0174213
-0.0122011
0.0435039
-0.129448
-0.000352448
-0.000203661
-0.000418405
3.27616e-05
-0.0817747
-0.0931632
-0.0923291
-0.0827754
0.082059
-0.0696598
0.00258469
0.0927543
-0.0800417
-0.0803677
0.00256465
0.0924139
-5.28701e-06
1.52146e-05
4.11002e-05
4.55083e-05
-0.00244056
0.00327825
-0.00167149
-0.000918038
-0.000111629
0.000513623
0.00127427
0.0053984
0.00398944
0.00215494
0.00944106
-0.00266447
0.0565492
-0.0806787
0.478065
-0.493488
0.491303
-0.0102062
-0.144317
-0.0215908
0.0397596
-0.00426537
-0.0094978
-0.00496857
-0.0276291
-0.0577691
-0.115175
-0.263207
-0.269098
-0.670404
-0.31633
-0.276583
-0.00940078
-0.109047
0.0857399
-0.541903
-0.323828
-0.151479
0.245456
0.0197742
0.0128152
-0.256662
0.271631
0.00159843
-0.0321289
-0.281978
0.272945
0.000477202
-0.0358245
-0.275183
0.272041
0.00234484
-0.0587216
-0.26256
0.193966
-0.154557
0.126616
0.0959862
0.283351
-0.133135
-0.0770418
0.0421109
0.170572
-0.557957
-0.031063
-0.326691
0.284705
0.262288
0.250304
0.31424
0.151938
0.0344935
0.121401
0.183576
0.30332
-0.141233
0.0291358
0.224937
-0.193576
0.000218465
0.196741
-0.199398
-0.00250395
0.190798
-0.194872
-0.00146615
0.189544
-0.192749
-0.00128533
0.18888
-0.193929
-0.00271362
0.182457
-0.204684
-0.0161442
0.154889
-0.236994
-0.088266
-0.00382226
-0.319226
-0.197653
0.115313
-0.314522
0.347983
-0.369354
0.010368
-0.387035
0.399238
-0.00606758
-0.230208
0.0146998
0.226887
-0.224448
0.000794001
0.00132418
0.00038903
0.000312571
0.000482533
0.00044749
0.000152632
0.000333174
0.000876521
0.00125835
0.00382873
0.000553717
0.061366
-0.0645273
-0.00185199
-0.000453285
0.00264475
0.000310608
0.302057
0.38907
0.00251625
-0.322225
0.315187
0.000213254
-0.324606
0.313957
0.000604954
-0.331445
0.308215
0.00122026
-0.341717
0.29764
0.00246299
-0.348882
-0.0153234
-0.0122235
-0.0660892
-0.0656749
-0.106403
-0.0516289
-0.0252902
-0.0113477
-0.00758414
-0.0150246
-0.027771
0.00177694
0.20328
0.236202
0.229362
0.325612
0.194886
0.00215704
-0.0221319
-0.0116198
-0.00603972
-0.009499
-0.0222156
-0.0477626
-0.0990057
-0.232765
-0.247765
-0.441074
-0.332079
-0.104608
-0.10538
0.224553
0.026326
-0.0275402
-0.0218946
0.111183
0.00460243
-0.0885701
-0.0847663
0.0878431
-5.47247e-05
-0.0979621
-0.0937586
0.0768637
-0.000400048
-0.121787
-0.116203
0.0371839
-0.154078
0.098018
0.095023
0.0994594
0.0864932
-0.135236
0.00948547
0.0501098
-0.153207
0.0367808
-0.147976
0.173892
-0.402503
-0.0216264
-0.387314
0.263032
0.270926
0.271273
0.266214
0.261437
0.264654
-0.419008
-0.0253515
-0.378004
0.270945
0.290136
0.272121
0.286387
-0.0213762
-0.403054
-0.400521
0.1743
0.272275
0.240439
0.238051
0.296382
0.283828
0.227545
0.0692475
0.151333
0.0616556
-0.0327685
0.0759168
0.0116244
-0.0553722
0.0575491
0.0025037
-0.0571382
0.0566675
0.000352088
-0.0582453
0.0559341
-0.000160657
-0.0564955
0.0576571
-0.000764798
-0.0579763
0.0558422
-0.00383473
-0.0607106
0.0529667
-0.014151
-0.0808101
0.030959
-0.0642898
-0.156124
-0.0745196
-0.231782
-0.279271
-0.285024
-0.191945
-0.14109
-0.216926
-0.00914224
0.158619
-0.119846
0.0116458
0.13149
-0.131137
0.00553594
0.137043
-0.140554
-0.00464943
-0.00944578
-0.243744
-0.000776889
-0.395291
0.000463544
-0.391718
0.00209754
0.40986
-0.416024
0.000489848
-0.412795
0.0048264
0.418978
-0.379876
6.77257e-05
0.380475
0.00198104
-0.380059
7.42572e-05
0.380558
0.00129918
-0.380352
0.000106907
0.380486
-0.000692386
-0.380752
0.000190559
0.380604
-0.00103676
-0.381095
0.000545567
0.381062
-0.00570114
-0.377513
0.00276227
0.377738
-0.00766742
-0.0084156
-0.471113
-0.340519
0.00781138
0.438964
-0.00286803
-0.466294
-0.323486
0.00644811
0.455991
-0.000931125
-0.463824
-0.318691
0.00242429
0.46026
-0.000688714
-0.462639
-0.316108
0.000171575
0.462749
0.000655729
-0.460009
-0.314436
-0.00195534
0.463843
0.000780956
-0.455579
-0.311606
-0.00548655
0.467131
0.00303056
-0.437475
-0.303781
-0.00581351
0.474667
0.0106379
-0.380333
-0.268864
0.0249535
0.500697
0.0604723
-0.0433204
0.115729
-0.198209
-0.320477
-0.00325118
-0.0896839
0.00139156
0.274766
-0.0226935
0.00385077
-0.231555
0.0010338
0.396284
-0.387418
-0.00242839
-0.390135
0.0108726
-0.374396
-0.000731601
0.376536
0.00844093
0.00306132
0.000773436
0.00449373
0.407697
0.00279783
-0.00348651
-0.101337
-0.000282754
0.109529
-0.000151404
0.000359244
0.000494152
-0.0174463
-0.0201655
-0.0144537
-0.157974
0.0158951
-0.0258956
0.00242879
0.00277503
0.00490608
0.35869
0.296019
0.00170026
-0.003232
-0.0134517
-0.0160923
0.262769
0.00967922
-0.334716
0.299815
-0.0021967
-0.324467
0.311532
-0.000675121
-0.000701371
0.00113359
0.00412685
0.00127949
0.00273111
0.00566312
0.0026938
0.00137218
0.00116731
0.00456621
0.000355198
0.000998089
0.0024524
-0.33179
0.291983
0.463013
-0.478177
0.47142
-0.476841
-0.00116164
-0.375655
-0.00359615
0.379001
-0.00469134
-0.372853
-0.0119616
0.390756
0.0233338
0.0292494
-0.266531
-0.000911501
0.286217
-0.300277
-0.000686132
-0.494776
-0.000939972
0.493031
-0.43233
-0.00018763
-0.437673
0.000126418
0.437626
-0.432539
-5.53532e-05
-0.429755
-5.78901e-05
0.42985
-0.442192
-0.000233606
-0.42098
-0.00133634
0.420119
-0.419366
-0.00376019
0.415662
-0.409737
-0.00774948
-0.00983775
-0.00227351
-0.000984076
-0.000135662
0.00014777
0.000439037
0.0012857
0.00265691
-0.00460417
0.00120558
-0.106179
0.117945
-0.116587
-0.109079
0.0010918
0.000655166
-0.00226719
0.00638962
0.103447
0.000941662
-0.00123108
-0.00962949
0.012611
-0.011045
-0.154729
0.0151194
-0.0327987
0.231991
0.011229
-0.0111039
-0.00937362
0.00617115
9.1105e-05
0.0793292
0.0803789
-0.00242258
0.068566
0.106063
-0.00183091
-0.00230908
-0.00237878
-0.00081755
0.00820976
-0.123315
0.315505
0.0183863
-0.470806
-0.00300757
0.476707
-0.418295
-0.00208852
-0.431755
-0.000211073
-0.426146
-0.000175517
-0.427539
0.000935316
0.428401
-0.439489
0.000179982
-0.420521
0.000622717
0.421047
-0.420927
-0.000403714
0.421079
-0.000274801
8.63472e-05
0.000453713
0.00115414
0.00188626
0.00250704
0.000135729
-7.50184e-05
-0.00254799
-0.00242853
-0.00916779
-0.0115406
-0.00241937
-0.00248644
4.02972e-05
5.26524e-05
0.000307237
0.000129223
0.000329575
0.000261543
0.000336233
0.000403648
0.000381106
0.000260682
0.00156827
0.00191036
0.0024636
0.00906662
-0.000546459
0.0641301
-0.330138
-0.0835469
-0.000107288
-0.0312054
0.141835
-0.144738
-0.470651
-0.170403
-0.00273352
0.0411925
-0.000202536
-0.333557
-0.141369
-0.0934909
0.213377
0.0257495
-0.0235761
-0.0413486
0.120337
0.00438021
-0.0823291
-0.102492
0.102986
0.000230263
-0.091028
-0.108026
0.095501
0.000562556
-0.117042
-0.122434
0.0257374
-0.00706962
0.00114269
0.00145421
0.411465
-0.372071
0.00250628
0.385076
-0.0140024
0.0103162
-0.486566
0.00179591
-0.302093
0.309856
-0.00260536
-0.294327
-0.5126
0.443276
-0.0278414
0.044916
0.166651
0.00174225
0.358699
0.266513
0.300045
-0.398423
0.00469868
-0.337524
0.0106001
-0.373714
0.00805478
-0.358062
0.0104878
-0.359837
0.00909277
-0.384006
0.279747
0.273523
-0.0192499
-0.481816
-0.38741
0.171109
-0.119024
0.149372
0.0839048
0.099698
-0.146306
0.0412297
0.0312861
-0.157898
0.0623202
0.114285
-0.136922
0.214612
-0.114971
0.0179088
-0.127141
0.0221432
-0.138675
-0.108675
0.0212681
-0.00879621
-0.00201188
-0.0013791
-0.000299956
0.000317509
0.000386626
0.000520802
0.00126207
0.00259739
-0.00466059
0.00130623
-0.0694102
0.0819513
0.000596701
0.0165335
0.0118639
0.0095583
-0.119287
-0.00875129
0.127472
-0.10494
-0.0574504
0.1293
-0.140872
-0.192489
-0.217259
0.153202
0.158193
-0.00947944
-0.0133345
-0.0431976
0.00502026
0.162173
-0.0294942
-0.037993
-0.0214266
0.11609
0.116172
-0.0381682
-0.0292239
0.149239
-0.0819435
-0.173497
-0.0823736
0.159767
-0.016016
-0.0169912
-0.0207627
-0.00551475
0.00171098
0.274369
-0.0231657
0.0105498
-0.00045308
0.000343494
0.000563344
0.000344616
-5.53875e-05
-0.000712916
-0.00177732
-0.000241912
-0.00125813
0.000339028
-0.0112274
-0.00418452
0.00614257
-0.0157881
-0.00758244
-0.00749075
-0.209419
0.201253
-0.00575531
-0.00471185
0.00981856
-0.00484334
-0.00447648
0.034074
0.0709649
0.0363055
0.25294
-0.127318
0.0163322
0.132989
0.167862
-0.0665616
0.00668678
-0.00242207
0.0110254
-0.00268979
0.00127875
-0.0191988
-0.00380005
0.000145246
6.98835e-06
-0.000510702
-0.00119321
-0.000820825
-0.00207476
0.00146878
0.00280213
0.000601697
-0.00527829
-0.00110632
-0.000229356
-0.000196131
-0.000359952
0.000582109
0.00753989
0.00234331
0.00387324
0.00222022
0.000847101
2.53924e-05
0.000757246
0.000800176
0.00168827
0.00296554
-0.409045
0.371951
-0.374311
0.375188
-0.374824
0.00191966
-0.414985
0.414907
0.00442416
0.00292191
0.00180609
0.000797007
0.405796
0.00244915
-0.00377587
0.128408
-0.00277145
0.00239743
0.0115138
-0.0189325
0.135899
0.10672
-0.0471976
0.0187703
-0.000399873
-0.000169134
0.069671
-0.00239702
-0.000141182
0.049159
-0.148709
0.0431211
0.000516955
0.0172677
0.0126334
0.00134468
-0.0131946
0.00534381
0.0116155
-0.0472967
-0.0434345
0.136366
-0.057587
-0.104835
-0.0190991
0.12877
-0.00857982
0.0115976
0.00926689
-0.00645851
-0.000351988
0.00253583
0.00926714
-0.00366371
-0.00405984
-0.00108248
-0.000633944
-0.00018412
0.00116821
0.0007399
0.000629773
0.000417061
0.416989
-0.417314
0.375529
-0.375968
0.376359
-0.377983
0.00182248
-0.419616
0.418127
0.00135776
0.000555188
3.38618e-05
-0.000365912
0.000542086
-0.00106525
0.000546606
0.000234279
0.00043957
0.000337797
0.000646695
0.000219483
0.000681641
0.00201132
0.011234
0.010174
0.0365426
0.00174081
0.000745152
0.00014405
-0.000753522
-0.00270834
-0.00113048
-0.00113497
0.000127562
-0.00026069
-0.000204887
0.000244124
0.000272492
0.000263089
1.75811e-05
-0.0010943
-0.00290567
-0.00304071
-0.00118357
1.61338e-05
0.000111237
0.000196807
0.000303051
0.000414628
0.000733945
0.000630917
0.00058769
0.00130382
0.00111016
0.000608096
0.00176782
0.0033933
0.00138941
0.002052
0.0490945
-0.0100145
0.00442431
0.00143467
0.00536528
0.108514
-0.00504642
-0.0156687
0.0776681
0.023315
-0.333702
-0.116099
-0.253952
0.227664
-0.154996
-0.165962
0.203796
-0.270029
-0.014533
-0.0197687
-0.224551
0.197749
-0.00314534
-0.0110291
-0.00113577
0.00404464
0.00566264
0.0826815
0.0258139
-0.153373
-0.131826
0.250359
0.0249406
-0.059213
-0.0171837
0.103395
0.00337787
-0.118128
-0.07658
0.0777654
-0.0002787
-0.123674
-0.0849943
0.0675685
-0.00112064
0.107705
0.103606
0.00620074
0.129551
-0.125938
0.000487569
-0.113762
-0.000633439
-0.00261842
-0.000444854
-3.64516e-05
0.000179067
0.000198191
0.000172877
0.000139011
4.12238e-05
-0.00104414
-0.00284554
-0.001484
-0.323976
0.309731
-0.000656316
-0.322518
0.315253
0.473399
-0.478288
0.474198
-0.483919
0.000275264
-0.380982
0.00259422
0.377047
-0.00036582
-0.376945
-0.000195675
0.377
0.00200803
0.00226879
-0.277563
0.000784237
0.281691
-0.303325
0.000456508
-0.494709
0.000442558
0.497097
-0.433448
-0.000147733
-0.436546
0.000463464
-0.432022
-0.000689727
-0.425801
-0.00131531
0.421904
-0.437732
0.000106953
0.419497
-0.00118117
-0.412909
0.411909
-0.00121852
-0.426702
0.431273
-0.417003
-0.000149519
0.000428495
0.00187049
0.00157355
0.000814613
0.000274937
-0.000215135
-0.00107722
-0.00118186
-0.000166169
0.00083686
0.00208543
0.00214006
0.0046304
-0.324427
0.315239
0.000978698
-0.329676
0.311203
0.474211
-0.494932
0.471787
-0.504451
0.0127478
-0.431492
0.0398267
0.375705
0.00243428
-0.395342
0.0114174
0.378671
0.000670338
0.00704631
-0.274675
0.00568775
0.292962
-0.310302
0.00155319
-0.49123
0.00273473
0.496642
-0.42526
-0.0016863
0.416343
0.00379307
-0.470793
0.274865
-0.0011054
-0.317071
0.281675
-0.295188
0.015406
-0.0361071
-0.0180097
-0.0312893
-0.055846
0.350586
-0.497426
0.107774
-0.0795554
-0.0309314
-0.0118058
-0.00438183
-0.00258759
-0.00416868
-0.00111214
0.066093
0.681705
0.341789
-0.177455
0.119649
0.0611851
0.389066
-0.33745
0.366581
-0.0218292
-0.239148
0.0116038
0.432655
-0.409076
-0.00109164
-0.406018
-0.000102051
-0.410631
-0.000255651
-0.420409
0.00182277
0.424224
-0.434233
0.000415609
-0.418816
0.0017149
0.420746
0.00161135
0.00109465
0.44135
0.00245755
0.436165
-0.000342777
-0.00278321
-0.0052499
-0.0178508
0.00284647
0.23918
0.0166345
0.0208036
0.0824438
0.144875
-0.200333
-0.000564987
-0.297214
0.00103259
-0.492197
-0.00227082
0.489294
-0.429469
-0.000798278
-0.43677
-4.05543e-05
-0.430847
-3.94364e-05
-0.429364
0.000359968
0.429761
-0.441385
-1.20715e-05
0.441699
-7.04358e-05
0.000400822
0.442017
-2.92725e-05
-0.000163678
-0.000855545
-0.00227914
0.425436
-0.00452061
0.401331
0.0239945
0.0122877
0.302773
0.0120101
0.00715052
-0.000537595
0.307651
0.0011763
0.00482727
-0.276814
-0.000364189
-0.302143
-0.000149567
-0.494728
-0.000188561
0.495022
-0.433366
-1.27001e-05
-0.437661
0.000279883
-0.43292
-0.000273697
-0.429047
-0.000577479
0.428428
-0.44211
-0.000451694
0.435883
-0.000944592
-0.000407317
2.78111e-06
0.000143998
0.000231701
0.000427352
0.00125083
0.00234419
0.00126783
0.00124783
0.000622331
0.00109598
-0.00155816
-0.000597106
0.00015866
0.000440267
0.000521564
0.000473128
0.000336879
0.000548103
0.00103914
0.00309945
0.00261728
-0.328587
-0.00853856
-0.321881
0.357601
-0.00734206
-0.339346
-0.347062
0.364521
0.340819
-0.0072069
-0.323933
-0.369966
0.387338
-0.348094
-0.00882758
-0.311383
0.350454
0.36861
0.363231
0.355272
-0.0080993
-0.342763
-0.318298
0.00264796
0.347213
-0.00669717
-0.363825
-0.331804
0.00117769
0.343291
-0.00244403
-0.372245
-0.337847
-0.34714
-0.355247
-0.00278269
0.354248
0.361746
0.00122675
0.336391
-0.00271793
-0.329662
-0.378743
0.385064
0.00113108
-0.304016
-0.456705
-0.00624473
0.315477
0.00212255
-0.296679
-0.439022
-0.00710376
0.332776
0.391938
-0.281862
0.022709
-0.273998
-0.00968963
-0.277712
0.022385
-0.273166
-0.00964229
-0.278795
0.0235126
-0.278326
0.387211
0.33685
-0.0105321
0.0151874
-0.00136855
-0.207791
-0.249084
-0.235871
-0.261501
-0.248994
-0.250973
-0.257817
-0.211696
-0.327633
-0.259059
-0.236776
-0.248365
-0.167796
-0.0724924
-0.0899825
0.148921
-0.166565
0.391907
0.39625
0.393198
0.394868
0.409277
0.3847
-0.161373
0.130086
-0.0721974
-0.16795
-0.09043
0.162314
-0.0168139
-0.0034629
-0.00346553
-0.00161253
-0.000713571
0.000388754
0.000367348
0.35938
-8.53308e-06
-0.350745
-0.359166
-0.332242
-0.38285
-0.000243884
0.334115
0.38327
0.00045198
-0.306718
-0.462521
-0.00227114
0.311372
0.465656
0.00153267
0.0605907
-0.0594759
-0.000667235
0.060442
-0.0598283
-6.58268e-05
0.0612501
-0.0593228
0.00218747
0.0678653
-0.0534802
0.0128136
0.0949726
0.0337825
0.018936
0.00621387
0.00296595
0.000442291
-2.59163e-05
-0.0004996
4.45925e-06
-0.00127062
-0.000881361
-0.00276389
-0.0615073
0.467978
0.00311696
0.0577666
-0.080156
-0.0125944
-0.0217875
-0.00856141
-0.0524526
0.0362451
0.0108598
-0.381806
0.0236026
-0.263572
-0.0107365
0.015678
0.000691938
-0.16721
-0.284833
-0.277206
-0.231986
-0.0732454
-0.156443
-0.0631237
-0.124801
-0.35477
0.0605485
0.500626
0.382274
0.411777
-0.160962
-0.342747
-0.206838
-0.000513893
0.0348215
0.0227452
0.0130538
0.00500808
0.00169638
-0.000165693
-0.307781
-0.466735
0.464704
0.310207
0.000307238
0.00187704
0.00571207
0.00627456
0.0196256
0.00723114
0.00136392
-0.000301421
6.96796e-05
0.380904
0.00165973
-0.333452
-0.386118
-0.306914
-0.473525
0.0010424
0.310987
0.464624
0.00238999
0.0015255
0.00163098
0.00112826
0.00174096
0.00301764
-0.423002
0.378957
-0.379502
-0.00587712
0.00248134
0.00119197
-0.00263151
0.000610906
0.000173322
0.419078
0.00060743
0.000403459
0.41863
0.00266552
0.000251111
0.000833487
0.00152407
-0.000903259
-1.57161e-05
0.000487162
8.86748e-05
0.000310502
0.000142751
3.88415e-05
0.000374736
0.00137622
0.000610137
0.000137622
6.17948e-05
-0.000775888
-0.00024647
-0.000258869
-0.000852209
-6.36061e-05
0.000213282
0.000213947
-0.000414183
-0.000322646
-0.0001776
-0.000142724
-0.00369109
-0.00381118
-0.0169033
-0.00645157
0.370294
-0.00240105
0.000251742
0.000165002
-0.00167635
-0.00179973
-0.000981507
-0.00694022
-0.00632608
-0.00476415
-0.000909346
-0.336192
0.302578
0.00466971
-0.334075
-0.0136834
-0.0135969
-0.0650516
-0.0830076
-0.304121
-0.306445
-0.491536
0.123207
0.0468672
0.254537
-0.0896145
0.132018
-0.0148188
-0.150813
0.135726
-0.00339366
0.105847
-0.00345234
0.12766
-0.140884
-0.0118965
-0.00374484
-0.0046205
0.00203114
-0.0170255
0.113339
-0.00566065
0.00420407
0.00423635
0.00271464
0.00154199
0.000669469
0.000573526
0.00600265
0.00516599
0.0129131
0.0111649
0.0319344
0.00661158
0.00298844
0.00100789
0.302885
-0.3055
0.00113377
-0.494507
0.00136907
0.499639
-0.431922
-0.000629502
-0.432376
0.000461394
0.427368
-0.000279626
1.58176e-05
0.000314376
0.000443608
0.00111452
0.00237206
0.00140233
0.000871327
0.000483657
0.000188495
9.53189e-05
0.000143249
0.000166519
0.000155428
0.424438
8.35816e-06
0.430134
3.23845e-05
0.412542
0.39606
0.00160426
0.394512
0.237932
0.00627113
0.00136368
-0.000159296
8.20521e-05
-0.000828353
0.431663
0.00152077
-0.00104248
0.280943
0.000170275
0.000552956
-0.000316056
0.303164
0.00105745
0.00347288
-0.276581
0.00275288
0.286134
0.000145934
0.00213876
0.000993978
0.000664635
-7.14605e-05
0.433437
0.00016159
0.432833
4.5526e-06
0.00065203
0.434154
0.000298491
0.438289
-0.000128202
0.00183653
0.434196
-0.00157319
0.302348
-0.00038285
0.00601314
-0.278057
0.0095326
0.297958
-0.00968561
-0.000297106
-0.0106517
-0.0360248
-0.0843817
0.00313242
-0.0122757
-0.00531576
0.00406134
0.00367911
0.431698
-0.000635879
-0.00137566
-0.00135202
-0.000289747
-0.00485688
-0.000237388
0.000667585
0.000514282
0.437525
0.431799
-0.000330041
-6.71719e-05
-0.000875979
-0.00168096
-0.00186206
-0.00799323
-0.0029906
-0.00310745
-0.00165337
-0.000636546
0.440296
-0.0012605
-0.000225312
0.000384774
-0.000277734
-0.00152735
-0.00548159
-0.0165787
-0.00397969
0.000111445
0.000421909
0.00183353
-0.00210916
0.00244801
0.00420903
-0.00732862
0.0324372
0.0671953
-0.0488426
0.348282
-0.00158555
-0.023126
-0.0339824
-0.018827
-0.00644626
4.32441e-05
0.00651164
0.0187712
0.0337582
0.0363162
0.000676191
0.0178119
0.017653
-0.327699
-0.166709
-0.34318
-0.16841
-0.000447495
0.0212062
0.00536464
0.00223931
0.321009
0.381457
-0.00142963
0.00310084
0.00127331
0.0025337
0.00138798
0.0030024
-0.00386581
-0.0205591
0.1531
0.351066
0.0146751
-0.000488955
0.000994633
0.00102298
0.000517595
0.000599649
0.000255902
0.000258908
0.00032532
-0.000560929
0.000137687
0.00010858
0.000894971
-0.000411061
-0.000705126
-0.36242
0.00259552
-0.352987
0.340484
0.00688435
-0.354896
-0.366845
0.349854
0.327484
0.00460718
-0.33421
-0.390669
0.374389
-0.000732133
0.313031
0.462572
0.00514963
-0.00107036
-0.00130808
0.00110664
0.00183391
0.0045832
0.0772245
0.122072
0.187
0.442121
0.0287747
0.228783
0.338726
-0.0156619
-0.00432509
-0.011159
-0.00297016
-0.00162136
-0.000261812
0.332228
0.35639
0.348299
0.338199
0.00277967
-0.378201
-0.344326
-0.000920386
0.333196
0.00727218
-0.380339
-0.349729
-0.00225709
0.321797
0.342966
0.305287
-0.00159261
-0.00242474
-0.00270156
-0.000816317
0.000260681
0.00166422
0.000323528
0.000267371
-0.000812666
-0.000344771
-0.00311782
0.0294704
-0.00323077
-0.00203159
-0.00491908
-0.00389481
-0.00241095
-0.004109
-0.00175597
0.0842769
-0.00200036
0.0018789
0.000257235
-7.8289e-06
0.005102
0.00446742
-0.0315799
0.181336
-0.078858
-0.306257
-0.387779
0.0290701
-0.177508
0.0737402
0.0233398
-0.109381
-0.117631
-0.0128414
-0.0194139
0.129011
0.118235
-0.0111011
-0.115016
-0.00198822
0.115521
-0.000583884
0.00150507
-0.00011326
0.00134778
0.00330086
0.00343401
0.00236422
0.00069098
0.000550526
-0.00133043
-0.00114898
-0.000183542
-0.000688803
-1.4072e-05
-0.000153455
0.000849513
0.00182893
0.00170895
-0.00235084
0.0030915
0.00657731
-0.0123034
0.385346
-0.0252793
0.0184259
-0.428861
0.00530585
0.00468701
0.0350676
0.00405926
0.00860772
0.026308
-0.00193371
-0.00073692
-0.0025962
0.00680175
0.0741375
-0.00479968
-0.00276308
-0.00141047
0.00190304
-0.188097
0.21812
-0.0065026
0.00141164
-0.0089269
-0.0224192
-0.0253636
-0.00471334
-0.00223348
0.0904283
-0.00230258
-0.00281259
-0.00530649
-0.000879208
-0.00310303
0.0796923
-0.00519933
-0.00298416
0.00680948
0.00519865
-0.00118599
-0.00132956
-0.000865532
-0.00219787
0.00203271
0.00553616
0.00441242
0.00356529
-0.00874231
0.0173479
0.0174258
0.0201262
0.0268148
0.385438
0.0524655
0.00813837
-0.0129275
-0.00456458
-0.000174566
0.00398474
0.0117307
0.00175095
0.378568
0.317554
0.00112999
-7.62981e-05
0.000348687
0.000331164
0.315657
0.376233
0.00014362
-0.37595
-0.341058
0.340795
0.000321423
0.351648
0.000329712
0.00764284
0.0211629
0.00210682
0.0020393
0.00611688
0.000360449
0.000576279
-0.00604081
-0.01857
-0.00527636
0.313393
0.334558
0.321684
-0.00594025
-0.0019685
-0.000348915
-0.000119073
-0.000334205
0.372711
0.314344
-0.000163717
0.00036825
0.00011021
-0.000733442
-0.000865571
0.311962
0.36431
-0.00183178
0.00101451
3.72993e-05
-0.00046969
-0.0018974
-0.0104207
-0.0550662
-0.355985
-0.128433
-0.0250968
-0.00338434
-0.000456057
0.000242752
-0.000245148
-0.000572612
0.000849059
-0.00527008
-0.0136197
0.0126796
-0.0166666
-0.0331474
-0.0222668
0.0126393
0.229944
0.330779
-0.0161206
0.00284617
0.219988
0.332572
0.00198661
0.209442
0.34587
0.164973
0.00104122
-0.00196528
0.355459
-0.00216941
0.0202074
0.121419
0.0209423
0.0447859
0.047455
0.0450882
0.05971
0.0376637
-0.00099842
-0.004923
0.0458865
-0.0215912
-0.0100314
-0.00778156
0.0490354
0.00476278
0.0338872
0.0296949
0.207426
0.175086
0.194404
0.18561
0.190155
0.041128
0.00667455
-0.000793331
-0.00697033
-0.0839018
-0.28361
-0.267911
-2.69933e-06
0.0113824
0.171133
0.000112986
0.432993
0.00326082
0.000577281
0.000183514
-0.000646835
-0.0110375
0.00177604
0.304237
0.435609
0.431236
-0.000218954
-0.0107675
-0.426845
0.00119229
0.00151408
0.0014005
-0.0442222
0.475297
0.0126324
0.0067263
0.00224737
0.00582158
0.0944447
0.00331172
0.214699
-0.254158
-0.0315898
-0.449241
-0.000208652
-0.0213918
0.106959
0.000716407
-0.455599
0.409948
0.00555691
0.231733
0.015356
0.0889157
0.215802
0.0346583
0.0369158
0.00175194
0.00150914
-0.00172977
0.292512
0.0132339
-0.0184645
-0.0261609
-0.0083906
0.00213372
0.000450697
0.000188143
0.000340377
0.000401353
0.000123552
-0.000970324
-0.00151225
-0.0135765
-0.006876
0.24377
0.0197295
-0.408511
0.445124
0.026993
0.321583
0.00207152
-0.297697
0.308166
0.0302493
-0.270151
0.292547
0.00587372
-0.281535
0.287597
0.00367449
-0.283891
0.287289
0.0026326
-0.285433
0.287046
-0.000591777
-0.288596
0.283768
-0.00716855
-0.295306
0.271221
-0.0333984
-0.310521
0.20245
-0.147766
-0.393093
-0.11974
-0.36862
0.0230126
0.240891
-0.242749
0.0138259
0.25184
-0.249185
0.00517607
0.25297
-0.260088
-0.00293152
0.252185
-0.258967
-0.0214087
0.243505
0.25565
0.394103
0.0997237
-0.284462
0.00372182
0.418181
-0.000766692
-0.426122
-0.00189347
0.408581
-0.00249638
-0.412585
-7.09476e-05
0.410177
0.000426281
-0.404031
0.00129547
0.41583
-0.0122856
-0.437027
-0.018987
0.340939
-0.0605482
0.0783538
0.177735
-0.325376
0.331419
-0.394048
0.371134
-0.383286
0.37719
-0.377689
0.379038
-0.374941
0.380513
-0.373396
0.379279
-0.375632
0.380863
-0.373653
0.391115
-0.332326
0.321471
-0.15854
0.313476
0.394169
0.196183
0.290797
0.211998