/*--------------------------------*- C++ -*----------------------------------*\
| =========                 |                                                 |
| \\      /  F ield         | OpenFOAM: The Open Source CFD Toolbox           |
|  \\    /   O peration     | Version:  2306                                  |
|   \\  /    A nd           | Website:  www.openfoam.com                      |
|    \\/     M anipulation  |                                                 |
\*---------------------------------------------------------------------------*/
FoamFile
{
    version     2.0;
    format      ascii;
    arch        "LSB;label=32;scalar=64";
    class       volScalarField;
    location    "1.4";
    object      gradTy;
}
// * * * * * * * * * * * * * * * * * * * * * * * * * * * * * * * * * * * * * //

dimensions      [0 -1 0 1 0 0 0];

internalField   nonuniform List<scalar> 
5322
(
0.0451121
0.00570085
0.00174609
0.00103011
0.00150111
0.00144828
0.00111438
0.000767652
0.000496332
0.000291575
9.62837e-05
-0.000216742
-0.000196969
-0.000184531
-0.000173372
0.000415393
0.000539372
-8.93684e-06
0.000466048
-0.000788726
0.000960185
-0.0014371
0.00179819
-0.00264069
0.00331046
-0.0044899
0.00547767
-0.00744812
0.00889173
-0.0112673
0.0131969
-0.0163233
0.0191875
-0.0195594
0.0204447
-0.0120301
0.0243234
0.0294069
0.0149208
0.0169126
0.0217375
0.0182881
0.0197535
0.020324
0.0193873
0.0201406
0.0196983
0.0210586
0.0205103
0.0187328
0.0236878
0.0103503
0.0122876
-0.037217
-0.00174489
-0.0213214
0.0119084
-0.0277162
-0.00124194
-0.0240747
0.0120831
-0.0272272
-0.00110207
-0.0239005
0.0121399
-0.0282617
-0.00154841
-0.023214
0.0123353
-0.0316667
0.000899274
0.023754
0.0131616
0.0184803
0.0137203
0.0174589
0.0145105
0.0174158
0.0148311
0.0208921
0.00142784
0.00849921
0.0123222
0.0193357
-0.00115283
-0.00665988
0.00264215
0.00496697
0.0110324
0.00167146
0.0029765
0.000515374
6.73851e-05
6.14343e-05
0.0225594
-0.0133172
0.000440895
0.0134636
0.000427774
-0.000824461
0.00264702
0.000456517
0.0144411
-0.0219295
0.019689
0.000528707
-0.000465575
-5.3214e-05
1.51072e-05
4.3094e-05
3.78802e-05
2.68834e-05
1.78627e-05
1.08043e-05
1.93366e-06
3.52909e-06
0.000151852
-5.2301e-05
-2.62699e-05
-0.000105005
0.000135081
-5.91951e-05
-0.000124544
-0.000177556
-0.000197032
-7.10708e-06
0.00015057
-0.000110027
1.14369e-05
0.000122776
-0.000121286
5.42718e-06
0.000127092
-0.000130724
-4.72272e-06
0.000117602
-0.000142412
-1.22653e-05
-3.99556e-05
0.000219957
0.000177685
-0.000131199
8.36081e-05
6.46982e-05
-0.000147848
2.23628e-05
-0.000138139
0.000106122
0.000113552
-0.000126804
-1.83251e-06
-0.000112655
0.000114597
0.000129735
-0.000111899
1.2353e-07
-0.00010244
0.000136684
-3.55319e-06
1.49315e-07
0.000467497
-0.000359127
0.000512435
-0.000726725
3.90131e-05
-0.000313743
1.41853e-05
3.75594e-05
-3.2795e-05
0.000115868
-0.000229523
0.000230849
-0.000445357
2.28336e-06
0.000458215
-0.000580057
0.000604802
-0.000819514
5.46219e-06
0.000812379
-0.00113488
0.00117969
-0.00159971
9.43312e-06
0.00157377
-0.00215352
0.00223224
-0.00296867
1.49906e-05
0.00291869
-0.00387465
0.00401144
-0.00518605
2.48788e-05
0.00509834
-0.0065771
0.00680502
-0.00851586
4.19323e-05
0.0083625
-0.0105267
0.0108832
-0.0131117
6.44171e-05
0.0128299
-0.0158108
0.0163174
-0.0186244
9.53565e-05
0.0181047
-0.0219991
0.0221769
-0.0133655
-0.000101704
-0.00161116
0.000816727
-0.000473973
-2.28678e-05
0.000117683
0.000196603
1.73433e-05
0.0225828
-0.0133089
5.59655e-05
0.0160234
-0.0025299
-0.00116347
0.00101769
-0.000932648
0.0133728
-0.0222461
0.000140175
9.65171e-05
0.000276933
0.000141726
5.26006e-05
1.1668e-05
-2.99614e-06
-6.98275e-06
-6.28673e-06
2.89436e-07
-2.79795e-06
-0.000120172
-0.000129682
-0.000130254
-0.000119877
3.30436e-05
3.46114e-05
1.74299e-05
-0.000153414
6.59269e-05
-0.000148919
3.42215e-05
3.31222e-05
1.79616e-05
-0.000147046
4.40245e-05
0.00013762
8.35099e-05
-0.000153497
6.62385e-05
0.00014961
0.000210016
0.000232339
-0.000453826
-0.000453506
-0.000485534
0.000457048
-0.000735344
0.00093588
-0.00135711
0.00180209
-0.00248094
0.00326497
-0.00433783
0.00554095
-0.00721687
0.00880621
-0.0114
0.0131168
-0.0168738
0.0180981
-0.00308932
0.0118037
-0.00171917
0.000574562
0.0156732
-0.0155245
0.00099181
0.0118908
-0.0107756
0.000662314
0.00815505
-0.00686942
0.000438991
0.00518085
-0.00412556
0.000280436
0.00306037
-0.00235498
0.000167828
0.00168132
-0.00128621
9.34855e-05
0.000859237
-0.000696512
7.37768e-05
0.000401205
-4.12335e-05
0.000401445
-0.000695862
7.38596e-05
0.000458832
-0.000483844
0.000177115
0.000271116
0.000191604
0.000187599
-0.00042461
0.000363529
-0.000659389
0.000823813
-0.00121494
0.00163148
-0.00223165
0.00297988
-0.00392444
0.00505999
-0.00658246
0.00803809
-0.0104294
0.0119366
-0.0149806
0.0159558
-0.00162496
0.00888247
-0.00651214
0.000913616
0.0221063
-0.0218487
0.00122723
0.0173077
-0.0146589
0.000754744
0.0117074
-0.00911045
0.000465843
0.00734224
-0.00542529
0.000289894
0.00434355
-0.00308292
0.000171391
0.00242119
-0.00166938
9.6843e-05
0.00127191
-0.000895096
7.72754e-05
0.000615905
-0.000532252
0.000174582
0.000379505
0.000327885
-0.000163087
0.000396793
-8.85613e-05
4.34966e-05
0.000435029
-0.00038535
0.000454382
-0.000581175
0.000931016
-0.000828765
-9.60134e-06
-0.00069413
0.000593648
-0.000475052
9.43735e-06
0.000489678
1.78868e-05
-2.24701e-06
-0.000122855
1.06634e-05
-9.68538e-06
6.38114e-06
-4.73548e-06
-2.71012e-06
0.000455435
-0.000456693
0.000588944
-0.000812005
1.94723e-06
0.00115222
-0.00157424
0.00218803
-0.00291779
1.15767e-05
0.0039418
-0.0050917
0.00670157
-0.00834369
3.04354e-05
0.0107334
-0.0127976
0.0160753
-0.0181036
-3.40141e-05
3.20684e-05
5.15757e-05
0.00014804
7.07082e-05
7.69299e-05
0.0108552
-0.0127993
5.55322e-05
0.0152283
-0.0183848
0.0164134
-0.0179368
0.000162905
0.0219238
-0.0246984
0.0159047
-0.0122899
-0.0235461
-0.00185905
7.70787e-05
-0.00843407
-0.0022927
0.000293998
0.0116604
0.0140849
0.000875002
-0.0179062
0.0115379
-6.20836e-05
-0.00984606
0.00748367
-0.000161689
-0.00573787
0.00458545
-0.000105365
-0.00324097
0.00262223
-8.47551e-05
-0.00179174
0.00147232
-6.09795e-05
-0.000899759
0.000797563
-6.12913e-05
-0.000442047
9.0567e-05
0.000161811
-0.000296728
-3.00915e-05
0.000559283
-0.000737557
0.00082182
-0.00111643
0.00154229
-0.00206629
0.00333985
-0.00294061
-1.82544e-05
-0.00251379
0.00218585
-0.00159205
-1.55108e-05
0.00179848
9.84615e-06
-4.57366e-05
-2.36489e-05
-4.63491e-05
-0.000173149
-2.22677e-05
1.74038e-05
-4.61827e-06
4.37607e-05
3.77278e-05
1.57263e-05
-2.28364e-05
0.000357834
0.000113304
1.74483e-05
9.32712e-05
-2.20192e-05
-8.49687e-05
-6.29994e-05
6.3158e-05
0.000107122
-0.000110804
-0.000169574
-0.00144603
-9.53581e-05
0.00181529
-0.0026338
0.00276915
-0.00360471
0.00473741
-0.00592378
0.00972008
-0.00837762
-2.13259e-07
-0.00763515
0.00673358
-0.00512201
-1.63144e-05
0.00586191
4.956e-05
-8.1435e-05
-6.75718e-05
3.98383e-05
-0.000623087
-0.000310855
-0.000219771
-0.000358891
-0.000153532
-0.000110705
0.000998855
-5.26914e-05
-2.27724e-05
0.000164644
-0.000276986
-9.07397e-05
0.000219878
0.000404416
0.000724898
2.14538e-05
-3.90317e-06
7.78429e-05
4.08906e-05
-0.000732318
-5.31298e-05
0.000941419
0.000859084
-0.00128323
9.38049e-05
-0.00135567
-0.000106182
0.00181085
0.00168284
-0.00234767
0.000168828
-0.00248874
-0.000179253
0.00327099
0.00307003
-0.00411302
0.000282842
-0.00437063
-0.000214502
0.00552511
0.0052166
-0.00685813
0.000445048
-0.00731048
-2.14579e-05
0.00868629
0.00827609
-0.0108146
0.000676104
-0.0115803
0.000971303
0.0125949
0.0122647
-0.0158206
0.00101488
-0.0168989
0.00432271
0.0166059
0.0166033
-0.00224899
0.000584934
-0.00277229
0.055484
-0.0275604
-0.0285145
0.0415242
0.010976
0.0037954
-0.0315394
-0.00753869
-0.0046
0.0130966
-0.0137708
-0.000266061
0.000679909
-0.00275038
-0.00305397
-0.000653245
0.000810971
0.00042129
-0.000207726
-0.000492332
-0.00016675
0.000202615
5.45119e-05
2.51928e-05
1.00049e-05
3.21171e-08
-5.86032e-06
-2.13853e-05
-9.82109e-06
0.000237422
-0.000237833
1.02381e-06
1.59094e-06
-0.000242761
0.000238837
-7.58457e-07
7.55353e-07
-9.33931e-07
-1.79718e-05
-1.15376e-05
4.31068e-05
1.27209e-06
4.95071e-05
-1.75944e-05
-2.17308e-05
-1.52626e-06
8.33232e-05
-9.9788e-05
0.000101705
-8.14217e-05
-8.30504e-05
-6.80713e-05
4.05785e-06
0.000101355
8.82059e-05
-8.66944e-05
-2.54138e-06
-0.000100656
5.11256e-07
1.13959e-06
9.3608e-07
-1.11872e-05
-1.17967e-05
-5.10004e-05
-4.60455e-05
-9.17908e-05
-0.000145128
-0.000184928
-0.000137647
-5.7102e-05
0.000714831
-0.00187578
-0.000835859
-0.00027442
0.00560947
-0.00691922
0.00767857
-0.00933396
0.0116676
-0.000568955
-0.0110171
-0.000588853
0.00934517
-0.00029616
-0.001055
0.000168777
0.000115789
0.000235851
0.000281758
-0.000262804
-0.00311533
0.0107341
-0.00519222
-0.0175135
-0.00280056
-0.00354134
-0.042551
-0.0120965
0.00157804
-0.0181085
0.0130385
0.000664156
0.000563615
0.0157451
0.013174
0.00166389
-0.00152276
0.0172783
0.0155489
0.00175707
-0.00181557
0.0157321
0.0176842
0.00164164
-0.00405297
0.0131363
0.0178912
-0.00641977
0.0105152
-0.00911755
0.0097615
-0.0382096
-0.0206199
0.00324287
-0.00944864
0.0177192
-0.00112051
-0.0286592
0.0167579
-0.000308768
-0.0197489
-0.0196797
-0.0282078
0.00915813
-0.0146417
-0.00990928
0.015015
-0.0255283
-0.00399558
0.01578
-0.0154203
-0.00140402
0.011454
-0.00929477
-0.000735763
0.00742944
-0.00558548
-0.000495688
0.00450919
-0.00325574
-0.000322906
0.0025934
-0.00180443
-0.000180539
0.00142163
-0.000953194
-6.05363e-05
0.000779139
-0.000467465
7.81058e-05
0.000393024
-0.00016972
0.0003254
0.000378256
-0.000536868
0.000614497
-0.000904121
7.80533e-05
0.000362226
-0.000425125
0.000174099
0.00018636
0.000192888
0.00027078
0.000231763
0.00017689
0.000352266
0.000218916
-9.65703e-05
-0.000286297
-0.000484132
-0.000484619
-0.000800999
-0.00134899
-0.0010483
-0.000514746
-0.000308712
0.00324059
-0.00435649
-0.000217385
-0.000147663
-0.000276434
2.41476e-05
-0.00450545
0.00394661
1.78103e-05
0.00297331
-0.00395682
1.98626e-05
0.0052053
-0.0067081
4.51278e-05
0.00856196
-0.0107158
8.91686e-05
0.0131746
-0.0160342
0.000125042
0.0185568
0.000150069
0.000357401
6.8768e-06
-3.02256e-05
-7.11749e-05
1.0894e-05
2.62125e-05
1.86065e-05
1.01292e-05
4.26934e-06
1.34231e-06
5.35441e-07
2.04015e-06
6.50516e-06
-0.000231963
4.83419e-06
1.4233e-05
-1.66363e-06
-5.32519e-06
-1.01707e-05
-1.72317e-05
-3.19025e-05
-6.4677e-05
-0.000128837
-0.000173876
0.000726794
-0.000220427
-0.000573793
-0.000789053
0.0152254
-0.0163096
0.0189672
1.65188e-05
-0.00267411
0.00222249
0.00683779
2.04578e-05
-0.00616312
0.00575722
0.00587029
2.46904e-06
-0.00655852
0.00611319
0.00528389
-1.13276e-05
-0.00828309
0.00785035
0.00742013
-0.000165715
0.0106269
-0.0111776
0.0109035
-0.0116966
-0.00109503
-0.00576774
0.00815483
-0.000738022
-0.00787141
-0.000187603
-5.71399e-05
0.0270265
-8.55433e-05
-0.0272029
0.0173796
-0.000625083
-0.0179793
0.0180291
-0.000400774
-0.0188877
0.0273887
-0.000266974
-0.027408
0.0234499
-0.0233762
0.0232129
-0.0237966
0.000118549
-0.0271014
0.0268076
-2.48668e-05
-0.0180316
-0.000699717
0.0181734
-0.0155324
8.03581e-05
0.0276549
0.0100413
0.0264259
0.00982943
-0.0110378
0.0159568
0.00221362
-0.0111753
0.0107973
0.000885543
-0.00804792
0.00706667
0.000576856
-0.00523648
0.00449474
0.000371544
-0.00318419
0.00262931
0.000242682
-0.00183487
0.00149075
0.000116126
-0.00100168
0.000753114
1.2504e-05
-0.000563174
0.000319057
-0.000152944
-0.000435187
-0.000113743
-0.000356987
0.000239289
2.30029e-05
1.23332e-05
0.000142635
4.07243e-05
-0.000220944
-0.000177446
-4.35709e-05
-0.000139145
-8.46758e-05
-6.3995e-05
-0.000154543
-7.05809e-05
-7.55919e-05
-0.000153191
-0.000225881
-0.000245529
-0.000175159
0.000483659
4.13128e-05
-0.00036626
-7.17259e-05
0.000653484
0.000768667
5.02258e-05
-0.000783524
-9.28156e-05
0.00117329
0.00170253
-6.28702e-06
-0.00243485
7.50767e-05
0.00312177
-3.44711e-05
-0.00436648
0.000129188
0.00542736
-6.4308e-05
-0.00737186
0.000149455
0.00887717
-0.000100251
-0.011701
0.000217507
0.0136263
-0.000187635
-0.017509
0.000111988
0.0194182
-0.000480083
-0.0247396
-0.000611615
0.000642751
-0.0149416
0.0244022
0.000136403
0.0134029
0.000407003
-0.0108462
0.0178162
-4.42219e-05
0.00911339
0.000321045
-0.00733142
0.0120334
-3.41506e-05
0.00591323
0.00023216
-0.00461573
0.00761999
-1.68543e-05
0.00360755
0.000167344
-0.00274363
0.00453111
-8.60359e-06
0.00207797
0.000102893
-0.00153062
0.00253725
-3.57235e-06
0.00112203
6.08125e-05
-0.000820767
0.00134937
-4.239e-06
0.000588872
3.30294e-05
-0.000453992
0.0007021
-1.63969e-05
0.000387657
-4.21496e-05
8.92863e-05
-0.000378701
-0.000324445
0.000168079
-0.000395779
-8.04401e-05
-1.22916e-05
-0.000724742
-0.000404466
-0.000354564
-0.000224102
-0.000175815
0.000432544
0.000497951
4.96379e-05
-0.000346673
-7.59111e-05
0.00091474
1.87737e-05
-0.00127878
5.87187e-05
-0.000154178
-7.28695e-05
-3.92571e-05
-0.000479365
1.26964e-05
0.000147456
-1.48826e-05
-3.12261e-05
-3.71047e-05
0.000154886
-4.84355e-05
2.0834e-05
1.8215e-05
7.27977e-07
1.46699e-06
1.31697e-06
2.02482e-06
1.6537e-06
2.96419e-06
-2.46457e-06
-2.15464e-07
0.0011503
-0.00133466
6.83002e-06
-1.34888e-06
-8.9136e-06
1.09927e-06
-0.000601463
6.55851e-07
0.000819148
-0.00116548
2.72316e-06
0.00159908
-0.00220308
7.83805e-06
6.23516e-06
-2.78715e-08
6.53819e-06
7.73782e-06
2.71004e-05
3.89422e-05
2.4816e-05
1.32167e-05
6.47424e-06
5.12007e-06
1.17495e-05
6.86518e-06
4.36659e-07
0.000806914
-0.00111104
0.00100334
-0.00138545
0.00189579
-0.00255045
5.23796e-05
-0.000847992
5.73588e-05
0.000795233
4.67994e-05
-0.000477245
3.14648e-05
0.000375825
-2.03953e-05
3.63716e-06
0.00013137
-1.86719e-05
-0.000281535
0.00172144
7.05198e-05
-0.0014937
-0.000159866
0.00202668
0.00266673
0.000196048
-0.00279074
-0.000256418
0.00369885
0.0044807
0.000332671
-0.00476554
-0.000399669
0.00597697
0.00731871
0.000481657
-0.00770317
-0.000583737
0.0089428
-0.0116066
-0.000789333
0.012147
-0.0166419
-0.0003047
-0.000603986
-0.000117399
-2.09738e-05
2.27728e-05
2.79624e-05
2.24558e-05
1.6214e-05
1.04775e-05
1.54883e-06
3.44865e-06
0.00012074
0.000129936
0.000131078
-2.86527e-05
0.000150976
1.28962e-05
1.16032e-05
0.000155793
-2.38553e-05
0.00015505
-4.71271e-05
6.84452e-06
-1.13828e-05
1.28382e-05
-2.855e-06
7.90628e-06
7.73525e-07
-0.000573718
3.0625e-05
1.54731e-05
6.62813e-06
1.49318e-06
5.28626e-07
-8.69879e-05
8.79164e-05
4.113e-06
-6.95599e-05
0.000118389
-3.05321e-05
8.6525e-06
4.52723e-05
1.70016e-05
-8.05472e-06
0.000155065
-0.000561709
4.12535e-05
-0.000382909
-7.54598e-05
0.00063153
0.000786604
4.23746e-05
-0.000795634
-8.77112e-05
0.00142474
0.0001008
-0.00152932
-0.000157618
0.00215386
0.00260666
0.000194098
-0.00282918
-0.000265055
0.00367819
-0.00482058
-0.000406868
0.0059527
0.000344265
0.000248558
0.000163754
9.6969e-05
4.76379e-05
8.68013e-06
6.34124e-07
2.19215e-06
6.94076e-06
2.79229e-06
-2.36531e-06
-1.15975e-05
-6.38178e-06
-3.56667e-06
-5.7465e-06
-4.51381e-05
-4.45448e-05
-9.44103e-05
-9.88506e-05
-0.000153183
-0.000179255
-0.000778528
-0.0012875
-0.00222103
-0.00240072
-0.00450765
-0.00387625
-0.00221026
-0.00847263
-0.0254273
0.00145847
-0.040696
-0.0304265
-0.0232011
-0.0154926
-0.0136081
0.00511141
-0.0119905
-0.000624382
0.00309018
0.000365651
-0.000134242
0.0147364
-0.0170713
0.0193129
0.000174829
-0.00240199
0.00362056
0.00793617
0.000279249
-0.00555564
0.00742917
0.00741082
0.000289751
-0.00593654
0.00765102
0.00696713
0.000211689
-0.00795611
0.00872681
-0.000391713
0.000339953
0.000499926
0.00346538
-0.014634
-0.0210294
0.00104537
0.0172713
0.000348799
9.81464e-05
0.0108592
0.0001385
-0.0177608
0.0213008
2.56191e-05
-0.0238174
0.0140767
-0.0138007
0.0119991
-0.00241785
-0.0158956
0.000456099
-0.0195156
0.0265984
-0.0232808
0.0209724
-3.67714e-05
-0.020998
2.98358e-05
0.0207951
-6.37566e-05
-0.0208942
1.09571e-05
0.0209848
-7.84927e-05
-0.0210644
0.0236926
-0.0271281
0.00193394
-0.0216495
0.0298912
0.0015916
0.000902935
-0.00981693
0.0104361
-0.0108155
3.80703e-05
-0.0078974
0.00726657
0.000518787
-0.00903658
0.00654405
-0.00772556
0.000685773
0.0151996
-0.00834398
0.00492184
0.00102309
-0.00921407
0.00728215
-0.000163849
-0.000136494
-9.69277e-06
0.000228308
0.000107416
3.35377e-05
2.85107e-06
-6.51816e-06
-8.13172e-06
-6.56137e-06
1.40179e-07
-2.65353e-06
6.9729e-05
8.35068e-05
1.97736e-07
-1.86989e-05
-1.16628e-05
0.000138519
4.40239e-05
-0.000130884
6.47461e-05
8.33451e-05
-0.000139475
8.00635e-07
-0.000142896
-1.21088e-05
-4.05447e-05
-0.000125004
0.000178161
0.000222213
1.09807e-05
4.32324e-05
-1.04234e-05
5.95972e-06
0.000106598
-0.000115394
-1.16231e-06
-0.000127824
0.000128712
0.000116549
-0.000105286
1.87464e-07
-0.000131178
1.43404e-07
0.000131604
2.87049e-07
8.63241e-07
-5.25634e-06
-2.41068e-06
1.35989e-05
8.39621e-06
0.00072421
0.000403809
0.000215812
-9.78341e-05
-0.000290615
-0.000500155
-0.000807345
-0.00131407
-0.00221434
-0.00393194
-0.00398655
-0.00781499
-0.00851229
-0.0184035
-0.0299433
-0.0271373
-0.0272658
0.0112857
-0.0158163
-0.00807679
-0.00872597
-0.0252696
-0.0305229
-0.0276033
-0.0276251
-0.027456
-0.0274428
-0.0313897
0.011435
-0.00137755
-0.00604805
0.0339067
-0.00938034
-0.0228656
-0.0211466
-0.0061907
-0.00753185
-0.0172835
-0.0178521
-0.00216726
-0.00401158
0.000547714
0.000885743
0.000720737
0.0004843
0.000299172
0.00023064
0.000117897
0.000115119
3.9393e-05
7.26872e-05
-0.000196604
-0.000381123
-0.000630396
-0.00100875
-0.00164826
-0.00295476
0.000912949
0.000685222
0.000612971
0.000684895
0.000565978
0.000385853
0.000381493
0.000226786
0.000286904
0.000155464
0.000820813
0.00126284
-0.00167674
0.00240178
-0.00307799
0.000171024
0.00162172
-0.00122018
9.74717e-05
-3.80431e-06
-4.43605e-05
-4.52975e-05
-0.000662205
-1.09048e-05
-0.000147851
8.40888e-05
-4.67785e-05
-6.40811e-06
-1.17515e-05
2.21013e-05
-0.000148357
0.000113274
-6.79537e-07
-1.44125e-07
-1.18876e-07
1.60544e-07
7.01524e-05
-2.43213e-06
8.14486e-07
6.91191e-07
9.94941e-07
-4.2722e-05
6.90469e-07
1.82886e-05
1.15551e-05
1.52475e-05
-1.06183e-05
1.04419e-05
9.81535e-10
1.37344e-06
-4.26575e-05
0.000148848
0.00014027
-8.2074e-05
-2.10033e-05
-6.51569e-05
0.000131969
1.38873e-05
5.67393e-06
1.05348e-06
4.44235e-07
-3.71843e-06
-2.75748e-06
-2.98911e-06
-2.34766e-05
-7.94666e-06
-4.58421e-05
1.86438e-05
-9.00697e-05
-9.58118e-05
-0.000145672
-0.000172231
-0.0022356
0.00295562
0.0043107
-0.00538664
0.00728239
-0.00895555
0.000446074
0.00500462
-0.00391571
0.000283897
1.1967e-05
-6.87532e-05
5.33852e-05
-8.45236e-05
0.000122349
-0.000193681
-0.000225997
-0.00020039
-0.000227918
-0.000166117
-7.9863e-05
0.000106517
0.000165937
7.4625e-05
0.00324135
0.000131163
0.000128526
5.4188e-05
1.94932e-05
3.96915e-06
-2.60192e-06
6.7064e-07
-9.58157e-07
-7.72457e-06
1.00997e-05
2.95678e-06
-4.88259e-06
2.88618e-05
1.15569e-05
1.26852e-05
6.3518e-06
8.75835e-07
9.17257e-06
8.44796e-06
2.43182e-06
5.24407e-06
1.02325e-05
1.83751e-05
7.46203e-06
6.78629e-05
2.96684e-05
4.53955e-05
0.000151371
6.33439e-05
0.000134383
0.000320776
0.000249323
0.000697945
-0.00244226
-0.00283839
-0.000455912
0.000382491
0.00052904
0.000279623
-0.00681761
-0.000164389
-9.07978e-05
-9.51208e-05
-0.000715236
-0.000236967
0.0160148
-0.000222719
-0.0196052
-0.00015623
-0.000830007
-0.0182446
-0.000844161
-0.00101299
-0.0122849
-0.00633642
-0.0103014
-0.0245996
0.00259724
0.00615466
0.000370713
-0.000340121
-0.000294293
-0.000530075
7.88359e-05
-0.0143724
0.0187635
0.000113144
-0.00421845
0.00192605
0.00633904
4.41144e-05
-0.00794975
0.00506825
0.00511777
-1.12787e-05
-0.00819027
0.00540756
0.004548
-6.24212e-05
-0.00754408
0.00184833
-0.0113393
0.00560988
0.0086537
-0.0105577
0.00308575
0.00126589
-0.000623545
-0.000101821
-1.47563e-05
2.95789e-05
3.18266e-05
2.42196e-05
1.68028e-05
9.83734e-06
4.27275e-06
9.55542e-06
4.06389e-05
0.00154568
-0.00210737
5.9704e-05
0.00285381
-0.00379114
0.00339864
-0.00445299
0.00575042
-0.00733916
0.000107437
-0.00268111
0.00012822
0.00255591
7.48145e-05
-0.00153812
9.15796e-05
0.00148218
2.06973e-05
7.70617e-05
0.000491689
-6.57129e-05
-0.000856731
0.00546841
0.000238534
-0.00455687
-0.000399836
0.00575777
0.00747833
0.000491437
-0.00755993
-0.000577623
0.0109253
0.000783095
-0.0114932
-0.000853904
0.012135
0.0154649
0.00080919
-0.019849
-0.000515646
-0.0165102
-0.0196205
0.000933302
0.0150227
0.012469
-0.0162139
-0.000454603
-0.000615618
0.000591473
0.000476368
0.000371045
0.000262632
0.000169414
9.74012e-05
4.58994e-05
8.05003e-05
1.79483e-05
-8.4253e-08
2.65056e-05
-9.16545e-07
0.00497379
-0.00643438
0.000145178
0.00815454
-0.0103106
0.00920258
-0.0113729
0.0140015
-0.0161794
-0.000428879
-0.00652924
6.36981e-05
0.00660807
7.56482e-05
-0.00445412
0.000141847
0.00417368
1.08249e-05
0.000229634
0.00153201
-2.24646e-05
-0.00190406
0.0137403
0.000466902
-0.0106217
-0.000849472
0.0127426
0.015383
0.000809983
-0.020418
-0.000424852
-0.0146011
-0.0262749
0.000260352
0.0190858
-0.00165817
0.00870525
-0.000253613
0.00583289
0.00518003
0.00258683
0.0016359
0.0108439
-0.00640984
-0.000285905
0.00128883
0.000713346
0.000481652
0.000337593
0.000222581
0.000133355
6.57641e-05
3.11963e-05
0.000284823
-0.000188292
-0.000309384
-7.56913e-05
6.07934e-05
-0.000178458
0.000576092
-0.000223403
-0.000263292
-0.000265883
-0.000167333
0.000433285
0.000490414
4.08372e-05
-0.000389802
-7.22399e-05
0.000764534
4.47931e-05
-0.000780673
-8.84578e-05
0.00119195
0.001429
0.000103432
-0.00154871
-0.000162562
0.0021317
-0.000278967
-0.000216956
-0.00189592
-0.000111032
-0.00098411
0.000296849
0.000298424
9.72568e-05
-0.000228634
-0.000370497
-0.000230389
-0.000184796
-0.000404517
-0.000113498
-6.45306e-05
3.61053e-05
5.58864e-06
0.000929212
3.23214e-05
-0.000783279
-9.11603e-05
0.00112033
0.00146175
9.83773e-05
-0.00153606
-0.000155574
0.0025965
0.000199342
-0.00279485
-0.000260181
0.00370251
0.00450603
0.000315842
-0.00582289
-0.000551882
-0.000364296
-0.0034315
0.00073516
0.000739213
0.000489343
-0.000124005
-0.000965219
-4.6642e-05
-0.000434239
0.000101162
-0.000153583
-0.000177655
9.12983e-05
0.000298904
-0.000159561
-0.00118154
0.000259818
3.82277e-05
0.000269974
-4.12665e-05
0.00314964
0.000142893
-0.00269253
-0.00026228
0.00350952
0.00460907
0.000325894
-0.00474329
-0.000392471
0.00725569
0.000511946
-0.00762264
-0.00058968
0.00894513
0.0110931
0.00072319
-0.0139561
0.000434311
-7.02741e-05
-2.33667e-05
1.88604e-05
1.39124e-05
8.3638e-06
4.48852e-06
2.22046e-06
-1.417e-06
3.50206e-07
9.11542e-06
1.1566e-06
-1.83238e-06
2.46513e-06
1.34308e-05
3.76546e-05
6.2527e-05
2.63911e-05
8.42797e-06
1.67221e-06
2.2395e-06
-6.61774e-07
8.18374e-07
0.00116436
1.63997e-06
-0.00115879
0.00159796
3.18396e-06
-0.00219361
0.00220357
-0.00159026
0.0016116
4.05437e-06
-0.00222551
0.00219259
-0.00159817
0.0011586
-9.66224e-07
-0.00117976
0.000826984
-0.000821393
0.000825226
-0.000823244
3.95293e-06
-0.00115341
0.00118503
5.23478e-06
-0.00160485
1.89897e-06
-0.00218434
0.00223608
7.54971e-06
-0.00297706
8.00039e-08
-0.0039199
0.00399856
-0.00393023
0.00394683
5.65993e-06
0.00295776
-0.00294404
2.95391e-06
0.00298847
1.08021e-05
-0.00398046
0.00393324
-0.00294953
-2.05844e-05
-0.00252193
0.00153798
7.58867e-06
0.00180557
-1.56436e-05
-0.00134253
0.000824484
6.07206e-06
0.000938024
-0.000832673
0.000598768
-3.50802e-06
-0.00060973
4.71706e-08
0.000597181
8.20163e-07
-0.000594495
3.05539e-06
0.000611777
4.94699e-06
-0.000595856
0.000836199
-0.000935673
1.18621e-05
1.18331e-05
6.90001e-06
2.17566e-05
1.26469e-05
-0.000238922
0.000248916
-0.00024456
0.000245136
2.10629e-07
-3.5811e-07
-6.90848e-07
-0.000248627
0.000239619
-1.22613e-05
-6.91288e-06
0.000118571
-0.000134048
1.47689e-07
-1.19933e-06
0.000462224
-0.000468274
0.000469808
-0.000460558
0.000480187
-0.000492012
-8.46651e-06
-5.96138e-07
-0.00011801
7.28085e-06
0.000134228
-5.48384e-06
6.71644e-06
6.45959e-06
1.91648e-06
3.78107e-06
6.71373e-06
8.11149e-06
8.11307e-06
-0.0051269
7.45324e-06
-0.00662109
0.00664519
-0.00669742
0.0066401
2.07691e-05
0.00520995
-0.00512928
-2.33605e-05
-0.00450452
0.00275041
1.72606e-05
0.00334083
-0.00207109
-9.6419e-05
-0.00145785
0.00182163
-0.000221578
-0.00260787
0.00319823
-0.000322753
-0.00437558
0.00536076
-0.00038475
-0.00689702
0.00852507
-0.000534423
-0.010522
-0.00117599
-0.000399868
-0.000614178
-0.000215819
-0.000401144
-0.000166147
-0.000276176
-0.000117183
-0.000178533
-6.77518e-05
-0.000122596
0.000998888
-0.0011204
-5.75341e-05
-0.0007529
0.00055898
-1.35964e-05
-1.77713e-05
-0.00010369
-3.46524e-05
-0.000319582
-3.16872e-05
0.000456487
1.70801e-05
-0.000700195
-9.27416e-06
-8.96664e-06
3.83321e-05
1.48108e-05
-2.28481e-05
-0.000239345
0.000357641
0.000114751
0.000434468
0.000151128
8.59161e-05
1.0067e-05
4.25282e-05
-0.000388346
0.000493482
-0.000479007
9.00306e-06
-3.13776e-08
-2.2738e-05
-5.73959e-06
4.35936e-08
4.45032e-05
6.41959e-05
0.000102095
0.000163536
3.82886e-05
-0.00758244
0.00464209
-0.00361141
0.00583342
1.59897e-05
4.4792e-06
-2.08854e-06
2.03487e-06
9.02379e-06
1.98006e-05
3.47421e-05
4.38325e-05
-1.64754e-05
-0.0083719
3.25308e-05
-0.0105694
0.0105252
-0.0119999
0.00736417
7.98648e-05
0.00958988
-0.00594384
-0.000164837
-0.000151667
0.000708821
0.000561919
0.000695403
0.000922466
0.00788974
0.011575
-0.014172
0.00153796
8.26175e-05
-5.9682e-05
0.000386984
-0.000172849
-0.000114484
-0.00651796
5.98497e-05
0.000594871
-0.0102251
0.000684583
9.53233e-05
4.00223e-05
9.16894e-05
0.000208346
0.000307414
0.000141749
5.16806e-05
2.31122e-05
1.97203e-05
1.94771e-05
2.79636e-05
3.776e-05
2.35581e-05
1.7588e-05
2.36205e-05
1.47072e-05
1.28796e-05
1.04402e-06
1.0482e-05
1.19456e-05
9.26226e-05
2.65633e-05
1.64484e-05
1.09828e-05
1.12508e-05
7.88259e-06
4.15975e-06
8.1136e-06
7.77564e-06
7.35587e-06
-2.26623e-05
1.20369e-05
2.60524e-05
1.93712e-05
3.51831e-05
5.68257e-05
6.34212e-05
0.000112466
5.45068e-05
0.000105876
5.00522e-05
0.0125377
-0.0155637
0.000267364
0.0178294
0.000346478
6.65108e-05
0.000200615
0.00125936
-0.00352561
0.0124027
-0.0104014
0.0219223
0.00316304
0.0133312
-0.0117142
0.0101581
-0.00982712
0.00711125
0.00806346
-0.0106522
0.00239571
-0.0115563
0.00751521
0.00776584
0.0145382
-0.000781394
-0.00031711
-0.00182312
-0.000136805
-0.0072189
-0.000155241
-3.19442e-05
3.19689e-05
4.55913e-05
7.72352e-05
3.99311e-05
3.45728e-05
4.10667e-05
3.49001e-05
-4.79824e-06
3.63365e-05
-3.02331e-06
0.000278392
0.000185958
0.00012622
-0.00713751
0.00895221
0.000354656
-0.00721578
-0.000586394
0.0089179
0.0112699
0.000719764
-0.0113367
-0.000829013
-0.0138425
0.000478755
0.00037507
-1.87875e-05
1.06668e-05
-5.08458e-06
0.000220431
3.79858e-05
1.9292e-05
2.56496e-05
1.95181e-05
-4.85993e-06
0.000172727
9.99847e-05
4.67778e-05
-0.000950618
-0.000108874
0.00119281
-3.86845e-05
0.000659254
-0.00044673
-0.00035443
0.00044626
-0.000250062
-0.000224716
-0.000226136
9.85492e-05
-0.000215563
-0.000240562
-0.00190622
0.000518572
-0.000240121
-0.000499673
0.000437026
0.000813381
-0.000376191
-0.00418614
0.000671095
0.000124008
0.000851716
-7.71278e-05
-0.00136501
-0.00054153
0.00102871
0.00171304
0.00121262
-0.000402854
-0.00348577
-0.000364194
-0.00338862
0.0010686
-0.000611999
-0.00594206
-0.00055259
0.00599748
0.00141083
-0.000882696
-0.00950801
-0.000585406
-0.0115155
0.00192809
0.00068892
0.00335597
0.000205531
-0.0177294
0.000426843
0.00226475
0.00274393
0.00387227
0.012776
0.0299621
0.0157551
0.0232141
-0.00216659
-0.00127224
-0.0143423
0.00151417
0.00110801
0.00278898
0.0154861
0.0225335
-0.00208569
-0.00116007
-0.000795546
0.00905891
-0.00920892
0.00133708
0.00105066
0.00128004
0.000680489
0.00222004
0.0142341
0.0227337
-0.00214462
-0.00116875
-0.000797572
-0.00928567
-0.000978085
-0.00068525
-0.000460525
0.00060415
0.000371928
0.000190803
5.57823e-05
0.000175936
0.000897879
0.00121597
0.0014341
-0.00131557
-0.00173025
0.00215394
0.012981
0.025415
-0.00435762
0.00529939
0.00234093
0.00193128
0.00018597
-0.000141827
-7.26183e-05
-3.56928e-05
-1.73812e-05
-8.17758e-06
-2.70883e-06
2.78234e-06
1.46155e-06
6.55329e-07
-2.69169e-07
3.70345e-06
2.01032e-06
2.01816e-06
1.02142e-06
-1.57241e-05
-3.79534e-05
-4.28367e-05
7.51612e-06
2.07644e-05
-0.0018035
0.00160598
8.74297e-06
6.80067e-06
7.96677e-06
6.79552e-06
4.27812e-06
8.29782e-06
2.6101e-05
3.5186e-06
0.000124143
-0.000620538
5.47422e-05
5.14471e-05
7.23593e-06
9.27855e-06
1.15208e-05
5.07002e-07
-6.52256e-06
1.63019e-05
1.20279e-05
1.02384e-05
9.27436e-06
1.05054e-05
1.26205e-05
3.99731e-05
3.73919e-05
0.0104868
3.08609e-06
-0.0104617
0.0128496
-1.89452e-05
-0.0154438
0.0154394
-0.0128294
0.0130553
2.96071e-05
-0.0155775
0.0155879
-0.012801
1.77059e-05
0.014833
-0.0092989
-0.000113594
-0.000123752
0.000111776
0.000252973
0.00030862
-0.000167321
-0.00143239
-0.00292741
-0.00550273
1.03964e-05
-0.00207982
-0.000851943
-0.000257408
0.000261627
0.000242163
5.02578e-05
5.04937e-05
4.87995e-05
2.48682e-05
0.00852092
-0.00837633
0.00840371
-0.00849545
-1.7099e-05
-0.0104695
0.0105979
-6.40416e-07
-0.0130415
-4.68577e-05
-0.0155029
0.0155929
-1.79765e-05
-0.0186383
0.0183573
-0.0210797
-1.39168e-06
-0.00015005
-5.30749e-05
1.58872e-05
2.97175e-05
0.000111108
0.000270503
0.000614063
0.00373676
-0.00234078
0.0559509
-0.00150675
-0.000250889
-0.00106176
-0.0111838
0.00253031
0.00651369
0.000501396
-0.000122485
-0.00570697
-0.000150005
0.00012915
0.000276513
2.35745e-05
3.06271e-05
0.000554497
0.000323821
-0.0182237
0.0161342
-0.000784625
-0.000472932
-0.000160577
0.00320876
-0.000870496
0.00262959
0.00430698
0.00775661
0.0148952
0.00323457
-0.00824277
0.00333883
-0.0115243
0.00265949
0.00120804
-0.00788154
0.000567371
-0.000132451
9.61982e-06
-2.75684e-05
1.04036e-05
0.000113294
-8.27502e-05
-0.000195923
-6.04749e-05
-0.000214313
-4.80769e-05
6.70887e-06
-2.70264e-06
1.14966e-05
-7.59863e-06
-1.6586e-06
-3.97245e-05
4.3469e-06
6.21725e-05
0.00013764
0.000297626
0.00549736
0.0236236
0.0012399
-0.00299556
0.0151005
0.000836893
-0.00212039
-0.00149276
-0.0025131
0.0556057
-0.00124018
-0.000270272
0.000492406
0.000104713
0.000239166
-0.00520484
-0.000166308
-0.00015892
-0.00112286
-0.0112871
-0.0104692
-0.00677546
-0.0238515
0.00256626
0.00580419
0.000255288