/*--------------------------------*- C++ -*----------------------------------*\
| =========                 |                                                 |
| \\      /  F ield         | OpenFOAM: The Open Source CFD Toolbox           |
|  \\    /   O peration     | Version:  2306                                  |
|   \\  /    A nd           | Website:  www.openfoam.com                      |
|    \\/     M anipulation  |                                                 |
\*---------------------------------------------------------------------------*/
FoamFile
{
    version     2.0;
    format      ascii;
    arch        "LSB;label=32;scalar=64";
    class       volScalarField;
    location    "1.4";
    object      gradTz;
}
// * * * * * * * * * * * * * * * * * * * * * * * * * * * * * * * * * * * * * //

dimensions      [0 -1 0 1 0 0 0];

internalField   nonuniform List<scalar> 
5322
(
-0.0598919
-0.05318
-0.0423145
-0.0456968
-0.0320598
-0.0212299
-0.0132447
-0.00779041
-0.0043461
-0.00236553
-0.00137106
-0.00106202
-0.000708675
-0.00103015
-0.00116515
-0.00104558
-0.00121269
-0.00101434
-0.00163655
-0.00214731
-0.00305646
-0.0040685
-0.00572626
-0.00754611
-0.0102919
-0.0130591
-0.0172418
-0.0214822
-0.0274101
-0.0328984
-0.0406156
-0.0477462
-0.0566428
-0.0633212
-0.0688586
-0.0617545
-0.0737243
-0.0721531
-0.0743169
-0.0550514
-0.068812
-0.0710383
-0.0539496
-0.0710463
-0.0703265
-0.0549248
-0.0721008
-0.0681916
-0.0544027
-0.0711217
-0.081737
-0.0544984
-0.0767613
-0.0667393
-0.0585704
-0.0630731
-0.079204
-0.0617913
-0.0585192
-0.0628421
-0.0799883
-0.062617
-0.0584929
-0.0613118
-0.0800118
-0.0649043
-0.0583255
-0.0583537
-0.0786196
-0.0694257
-0.0486622
-0.0706527
-0.0672241
-0.0662081
-0.0668124
-0.0664924
-0.0664448
-0.0662962
-0.0674299
-0.0645445
-0.0632126
-0.0519608
-0.0539059
-0.0680996
-0.0431746
-0.0599344
-0.0896507
-0.0594091
-0.0591545
-0.0507298
-0.0622176
-0.0412148
-0.0433878
-0.0433651
-0.0571138
-0.0567076
-0.0528386
-0.057436
-0.0911138
-0.0576171
-0.0583717
-0.0514082
-0.0579025
-0.0565234
-0.0617859
-0.0514456
-0.0539191
-0.0461929
-0.0324634
-0.0215452
-0.0134369
-0.00787946
-0.00436245
-0.00234548
-0.00152341
-0.00119961
-0.000884457
-0.000930109
-0.00142022
-0.00100736
-0.000852046
-0.000980349
-0.000966267
-0.00132797
-0.00100571
-0.00130327
-0.000957562
-0.00100034
-0.00128527
-0.000959147
-0.000984025
-0.00129959
-0.000974832
-0.000966773
-0.00130407
-0.000985097
-0.000969408
-0.00133601
-0.00101088
-0.00130942
-0.000963589
-0.000856963
-0.00101053
-0.000919267
-0.000887426
-0.00142371
-0.00093252
-0.00092896
-0.000879351
-0.00088772
-0.00143865
-0.000930921
-0.000927788
-0.00088291
-0.000884956
-0.00143658
-0.000929238
-0.000917172
-0.000854142
-0.0011677
-0.00104625
-0.00121719
-0.00182145
-0.00233718
-0.00126139
-0.00164284
-0.00101737
-0.00123522
-0.000754196
-0.000995488
-0.00103374
-0.000966592
-0.00115367
-0.00120664
-0.00110688
-0.00173806
-0.00172168
-0.00220446
-0.00157847
-0.00220538
-0.00309828
-0.00309862
-0.00417361
-0.00297305
-0.00418404
-0.00575564
-0.00575738
-0.00766172
-0.00553345
-0.00767678
-0.0102725
-0.0102767
-0.013308
-0.00977272
-0.0133366
-0.0173165
-0.0173336
-0.021754
-0.0162544
-0.0218125
-0.0275043
-0.027555
-0.0334534
-0.0254289
-0.0335587
-0.041059
-0.041179
-0.0483868
-0.037261
-0.0485772
-0.0567312
-0.0568572
-0.0573444
-0.0911034
-0.057592
-0.0574212
-0.0515646
-0.0700567
-0.069903
-0.0433918
-0.043431
-0.0570184
-0.0571813
-0.05241
-0.0581917
-0.0910735
-0.057982
-0.0573471
-0.0516985
-0.0571007
-0.0567859
-0.0527958
-0.0526581
-0.0461071
-0.0324838
-0.0215836
-0.0134637
-0.00789447
-0.00436995
-0.002349
-0.00152563
-0.00120192
-0.000884992
-0.000885624
-0.000885064
-0.000883558
-0.00143657
-0.000927578
-0.000929362
-0.000882503
-0.000985082
-0.00150049
-0.000927635
-0.00143775
-0.000930846
-0.00148999
-0.00100107
-0.00128542
-0.000960856
-0.000883468
-0.000985681
-0.00128628
-0.000703125
-0.000998817
-0.00110775
-0.00110658
-0.0011547
-0.00172274
-0.00220597
-0.00310137
-0.0041755
-0.00576309
-0.00766338
-0.010287
-0.01331
-0.0173518
-0.0217553
-0.02759
-0.0334443
-0.0412493
-0.0483344
-0.0572651
-0.0566674
-0.0911623
-0.0576964
-0.0528327
-0.0566094
-0.0487175
-0.0372919
-0.041062
-0.033619
-0.0254506
-0.0275299
-0.0218354
-0.0162669
-0.0173367
-0.0133452
-0.00977928
-0.0102851
-0.00767991
-0.00553686
-0.00576422
-0.00418427
-0.00297477
-0.00310445
-0.00220434
-0.00157898
-0.0017412
-0.00125162
-0.00174088
-0.00220545
-0.00157981
-0.00172431
-0.00115586
-0.00120864
-0.000966762
-0.00071021
-0.00103932
-0.00105001
-0.00174102
-0.00220102
-0.00309766
-0.00418752
-0.00577245
-0.00768383
-0.0103285
-0.0133482
-0.0174471
-0.021825
-0.0278165
-0.0334656
-0.0417695
-0.047974
-0.0576537
-0.0570671
-0.0902225
-0.0607647
-0.0513107
-0.0620443
-0.0528443
-0.0363019
-0.0447472
-0.0361634
-0.0247368
-0.029805
-0.0233322
-0.0157686
-0.0186902
-0.0142099
-0.00946587
-0.0110699
-0.00815997
-0.00535363
-0.00618466
-0.00443125
-0.00287254
-0.00331116
-0.00233874
-0.00151919
-0.0018221
-0.00121929
-0.00117097
-0.000998472
-0.00100906
-0.000921759
-0.00123763
-0.000753923
-0.00086325
-0.00108949
-0.00102598
-0.00176418
-0.00227193
-0.0022012
-0.00220316
-0.00156642
-0.00171608
-0.0017493
-0.00106796
-0.00120447
-0.00117323
-0.001248
-0.00121621
-0.00142842
-0.00106483
-0.0010145
-0.00148654
-0.00132736
-0.00125216
-0.00114501
-0.00111455
-0.0017418
-0.0022055
-0.00216981
-0.00310636
-0.00418495
-0.00576669
-0.00767968
-0.00730791
-0.0102939
-0.0133363
-0.0173656
-0.021794
-0.0201511
-0.0276063
-0.0334882
-0.041216
-0.0484335
-0.0434329
-0.0433903
-0.0305738
-0.0306187
-0.0203144
-0.0202235
-0.0277723
-0.0335401
-0.0254825
-0.0339187
-0.0410621
-0.0415709
-0.048216
-0.0372944
-0.0493738
-0.0562126
-0.063662
-0.0558759
-0.0920511
-0.0595085
-0.0563304
-0.0535217
-0.0685971
-0.0412807
-0.0376925
-0.051236
-0.0309944
-0.0414994
-0.0343291
-0.0206742
-0.0277791
-0.0218264
-0.0130816
-0.0174988
-0.0132578
-0.00784316
-0.0103197
-0.00753654
-0.0044251
-0.0057636
-0.00406779
-0.00236949
-0.00304672
-0.00213021
-0.00125633
-0.00164181
-0.00109185
-0.00104563
-0.00150697
-0.00148955
-0.00191689
-0.00278985
-0.00313323
-0.00430319
-0.00588414
-0.007898
-0.00766287
-0.00769805
-0.00552386
-0.00578083
-0.00577499
-0.00419422
-0.00296424
-0.00416314
-0.00403174
-0.00388908
-0.00207777
-0.00179958
-0.00218791
-0.00201718
-0.00192184
-0.00229275
-0.00234947
-0.00136645
-0.001063
-0.000734425
-0.00125182
-0.000713096
-0.00107451
-0.00131274
-0.00170129
-0.00312922
-0.0043122
-0.00433213
-0.00781209
-0.00786605
-0.00579376
-0.00526638
-0.00531904
-0.00691243
-0.00939969
-0.0105908
-0.0137213
-0.0179425
-0.0224599
-0.0219078
-0.0218582
-0.016267
-0.0174195
-0.0174342
-0.0133716
-0.00976803
-0.0133503
-0.0125573
-0.0120145
-0.00703204
-0.0061675
-0.00734908
-0.00711821
-0.00678268
-0.00406169
-0.00380943
-0.00363599
-0.00371901
-0.0028411
-0.00339034
-0.0032084
-0.00237827
-0.00138082
-0.0010679
-0.00106732
-0.000980785
-0.00125487
-0.0010145
-0.00173583
-0.00173393
-0.00220736
-0.00216191
-0.00310302
-0.00310496
-0.00418473
-0.00297694
-0.00418057
-0.00403236
-0.00576567
-0.00576894
-0.00767728
-0.00554241
-0.00768046
-0.00729976
-0.0102915
-0.0103029
-0.0133321
-0.00979207
-0.0133541
-0.0125003
-0.0173565
-0.0173865
-0.0217887
-0.0162923
-0.0218575
-0.0201556
-0.027566
-0.0276594
-0.0334655
-0.0254898
-0.0336676
-0.0305716
-0.0410693
-0.0413506
-0.0483285
-0.0373073
-0.0487483
-0.0433458
-0.0566129
-0.0571375
-0.0572888
-0.0527415
-0.0573215
-0.0519995
-0.0577734
-0.0557398
-0.0499536
-0.0678429
-0.0440536
-0.0564719
-0.0421002
-0.0402619
-0.0481436
-0.0478644
-0.0437968
-0.047084
-0.0475757
-0.0404923
-0.0337699
-0.033129
-0.0216531
-0.0220259
-0.0170936
-0.0135431
-0.0133758
-0.013274
-0.00777817
-0.00433484
-0.00236251
-0.00136967
-0.00106027
-0.000713247
-0.00102903
-0.000908741
-0.00107362
-0.00108381
-0.000974579
-0.00100666
-0.00121107
-0.000881443
-0.00107995
-0.0010143
-0.00101532
-0.0010827
-0.000855221
-0.00107642
-0.00101851
-0.00102427
-0.00121371
-0.000871933
-0.00088127
-0.000880002
-0.000873008
-0.00087069
-0.000862629
-0.00146342
-0.000878832
-0.000872446
-0.000872583
-0.00146448
-0.000880041
-0.00122568
-0.00155065
-0.00153694
-0.00133034
-0.00132378
-0.00124379
-0.0021916
-0.00409659
-0.00740199
-0.0126303
-0.0202699
-0.0193139
-0.0171483
-0.0203304
-0.019781
-0.0188682
-0.0199953
-0.0253633
-0.0288576
-0.0342721
-0.0443654
-0.0375451
-0.0374751
-0.0285316
-0.0315573
-0.0250075
-0.0270843
-0.027447
-0.0214015
-0.0325355
-0.0465641
-0.0634612
-0.0634016
-0.0639684
-0.0531141
-0.0484943
-0.0516885
-0.0582504
-0.0501251
-0.0577773
-0.0845938
-0.0762891
-0.0733291
-0.0759536
-0.0479617
-0.0613402
-0.0642633
-0.0774879
-0.0492428
-0.0633395
-0.0645064
-0.0778554
-0.0494594
-0.0625553
-0.0653458
-0.0777377
-0.050718
-0.0621021
-0.0697838
-0.0971259
-0.0783599
-0.0766837
-0.0974008
-0.0957503
-0.0756552
-0.054936
-0.0767714
-0.0667951
-0.058545
-0.0629478
-0.0683346
-0.0544348
-0.071009
-0.0817803
-0.0544867
-0.0632537
-0.0519903
-0.0539515
-0.0681211
-0.0564649
-0.0415561
-0.0496846
-0.0408607
-0.029535
-0.033632
-0.027468
-0.0194063
-0.0216291
-0.0173328
-0.012042
-0.0131567
-0.0102926
-0.0070221
-0.00755241
-0.00575478
-0.00387093
-0.00409216
-0.00306675
-0.00201111
-0.00215917
-0.00164385
-0.00110384
-0.00123663
-0.000915271
-0.00100444
-0.000994818
-0.00121744
-0.00182382
-0.00233883
-0.00151817
-0.00174222
-0.00104697
-0.00116899
-0.00103665
-0.000708996
-0.000964531
-0.000998839
-0.00120792
-0.0010801
-0.00107261
-0.00138604
-0.00238348
-0.00437028
-0.00437099
-0.00785781
-0.0134219
-0.012583
-0.0120023
-0.0114787
-0.0121843
-0.0159986
-0.0157665
-0.00943706
-0.0102343
-0.0103905
-0.010325
-0.0103227
-0.00732708
-0.0076832
-0.0102818
-0.00979103
-0.0133533
-0.0173363
-0.0162869
-0.0218463
-0.027532
-0.0254698
-0.0336059
-0.0410554
-0.0372689
-0.0485246
-0.0401743
-0.0408354
-0.0549874
-0.055043
-0.0467363
-0.0324944
-0.0213734
-0.0132681
-0.00778276
-0.00434179
-0.00236745
-0.00137609
-0.00106669
-0.000710119
-0.000998001
-0.00107764
-0.00106303
-0.00137376
-0.0023682
-0.00435169
-0.00781273
-0.0133239
-0.0214602
-0.0326265
-0.0468338
-0.0645089
-0.0640393
-0.05415
-0.104693
-0.0765896
-0.0734403
-0.0645496
-0.0778233
-0.0495188
-0.0496541
-0.0537844
-0.0801351
-0.0511593
-0.051944
-0.0529609
-0.0805765
-0.0513943
-0.0521734
-0.052643
-0.0804752
-0.0529019
-0.0538294
-0.059475
-0.10251
-0.0793009
-0.0773514
-0.0776915
-0.0770273
-0.0608533
-0.0563995
-0.0597394
-0.102134
-0.0590546
-0.0618071
-0.0799358
-0.0626971
-0.05845
-0.0611954
-0.0714248
-0.0539138
-0.0706509
-0.0706875
-0.0550518
-0.071835
-0.0619597
-0.058491
-0.0626141
-0.0665467
-0.066322
-0.0668963
-0.0660333
-0.0585206
-0.0590486
-0.0642929
-0.0800887
-0.0692552
-0.0555656
-0.0737754
-0.0649029
-0.0555661
-0.0891662
-0.0477915
-0.0613781
-0.0506087
-0.0578648
-0.0510435
-0.0391755
-0.0439617
-0.0369032
-0.028238
-0.0301857
-0.025014
-0.0182602
-0.0197558
-0.0156882
-0.0116081
-0.0119801
-0.00939823
-0.00659412
-0.00693866
-0.00521254
-0.00370979
-0.0037222
-0.00279873
-0.00190379
-0.00194287
-0.00149566
-0.0010478
-0.00108787
-0.000706962
-0.00123993
-0.000904461
-0.000730486
-0.00132689
-0.000964427
-0.0010035
-0.00129862
-0.000956643
-0.000996249
-0.00128067
-0.000955594
-0.000982806
-0.00129568
-0.000974409
-0.000961383
-0.00129884
-0.000713162
-0.000971108
-0.00120856
-0.00110921
-0.00124937
-0.00173399
-0.00157542
-0.00220195
-0.00219893
-0.00215549
-0.00308669
-0.00286225
-0.00417067
-0.00441623
-0.00338313
-0.00616229
-0.00440786
-0.00811523
-0.00613422
-0.0109906
-0.00777632
-0.0141148
-0.0104994
-0.0184996
-0.0129344
-0.0230841
-0.0169025
-0.0292575
-0.0202054
-0.0355593
-0.0256194
-0.043566
-0.029764
-0.0516279
-0.0365778
-0.0604395
-0.0411057
-0.0483568
-0.0574434
-0.0561299
-0.0434974
-0.0495054
-0.0355697
-0.0417491
-0.0405281
-0.0304229
-0.0342397
-0.0242171
-0.0280023
-0.0272746
-0.0200749
-0.0222606
-0.0155201
-0.0177023
-0.0172504
-0.0124656
-0.0136374
-0.00933473
-0.010499
-0.010261
-0.0072866
-0.00784575
-0.00529323
-0.00587831
-0.00575644
-0.00402276
-0.00428166
-0.00283449
-0.00313817
-0.0030958
-0.00215351
-0.00225571
-0.00149053
-0.00176809
-0.00170993
-0.00124417
-0.00101799
-0.000858179
-0.000750953
-0.000992989
-0.00100246
-0.000912451
-0.00123196
-0.00109587
-0.00124845
-0.000979472
-0.0010653
-0.00107723
-0.00099292
-0.00120437
-0.0011051
-0.00114926
-0.00123921
-0.00173409
-0.00151457
-0.00233125
-0.00179909
-0.00330198
-0.00236486
-0.00320762
-0.00173699
-0.0017351
-0.00172039
-0.0013193
-0.00148302
-0.000927013
-0.00143402
-0.000926107
-0.000878991
-0.00107558
-0.00102114
-0.00101148
-0.00102342
-0.00101814
-0.0015001
-0.00133022
-0.00125117
-0.00219887
-0.00219843
-0.00217423
-0.0031078
-0.00310648
-0.00215643
-0.00320206
-0.00174415
-0.00174197
-0.00172596
-0.00158163
-0.00221137
-0.00309968
-0.002978
-0.00418602
-0.00576046
-0.0055428
-0.00607126
-0.0041071
-0.0040509
-0.00741944
-0.0126586
-0.012543
-0.0126423
-0.00741291
-0.00410509
-0.00404252
-0.00408949
-0.00218835
-0.00215881
-0.00219477
-0.00309341
-0.003308
-0.00442399
-0.00617055
-0.00812768
-0.00441602
-0.00575497
-0.00338812
-0.00408786
-0.00237198
-0.00306648
-0.00180341
-0.00215655
-0.00200645
-0.00191524
-0.00280184
-0.00284364
-0.00374279
-0.00428669
-0.00403076
-0.00576251
-0.0055005
-0.0076342
-0.00766826
-0.00730276
-0.0102328
-0.00973628
-0.0132781
-0.0132836
-0.0124482
-0.0171975
-0.0161409
-0.0216684
-0.0216829
-0.019995
-0.0272888
-0.0243604
-0.0332986
-0.0405886
-0.035729
-0.0482634
-0.055664
-0.0486502
-0.0541469
-0.0463134
-0.0324798
-0.0215363
-0.0134274
-0.00787314
-0.00435863
-0.00234338
-0.00152182
-0.00119792
-0.000883086
-0.000881015
-0.000885497
-0.000928485
-0.00149587
-0.00132781
-0.00132477
-0.00148138
-0.000926825
-0.000878572
-0.00107851
-0.00101118
-0.00106118
-0.00101194
-0.00148674
-0.00132138
-0.00124129
-0.00173891
-0.00151815
-0.00170937
-0.00169731
-0.00153719
-0.00121338
-0.000873551
-0.00087117
-0.00146434
-0.000863156
-0.000877203
-0.00143559
-0.00169712
-0.00219376
-0.00207512
-0.00121363
-0.00142246
-0.00177672
-0.00124838
-0.00171155
-0.00156355
-0.00220163
-0.00219625
-0.00217145
-0.00309406
-0.00297044
-0.00417457
-0.00403576
-0.0057429
-0.00551746
-0.00765284
-0.00764491
-0.00726948
-0.0102517
-0.00940041
-0.0132711
-0.0172481
-0.0156075
-0.0216707
-0.0201774
-0.0125761
-0.00737489
-0.00408346
-0.00218503
-0.00169454
-0.00153519
-0.00121152
-0.00168741
-0.00236217
-0.00170043
-0.00171247
-0.00169802
-0.00168858
-0.00236168
-0.00219789
-0.00217041
-0.00410409
-0.00404309
-0.0074116
-0.00730971
-0.00783568
-0.0133613
-0.0215281
-0.0216546
-0.0329545
-0.0309094
-0.0299379
-0.0436274
-0.057133
-0.0497606
-0.0719361
-0.0554919
-0.10721
-0.0751653
-0.0738532
-0.068422
-0.0852836
-0.0781913
-0.0806738
-0.0777943
-0.106576
-0.0742402
-0.073343
-0.0645044
-0.0774764
-0.0493755
-0.0504005
-0.054395
-0.079703
-0.0509396
-0.0528389
-0.0537595
-0.0801396
-0.0511772
-0.0529142
-0.0535894
-0.0800298
-0.0527917
-0.0542222
-0.0738126
-0.0539282
-0.0433989
-0.0433838
-0.0486194
-0.0518186
-0.0361112
-0.0443563
-0.0303339
-0.0362869
-0.042703
-0.0304869
-0.0403177
-0.0488362
-0.0435583
-0.0552803
-0.0601753
-0.0485887
-0.0456613
-0.0396741
-0.0499279
-0.0493517
-0.0645331
-0.067498
-0.0661942
-0.0558691
-0.0433069
-0.0552942
-0.0499699
-0.0555437
-0.0432323
-0.0552814
-0.0500202
-0.055617
-0.0433691
-0.0553664
-0.0673718
-0.0658983
-0.0586522
-0.0553046
-0.0664733
-0.0805346
-0.0607842
-0.0781512
-0.0792954
-0.0761309
-0.0617858
-0.0590588
-0.0594787
-0.101622
-0.0597666
-0.0664723
-0.0983834
-0.0801192
-0.0767091
-0.0608206
-0.059041
-0.0741184
-0.0539159
-0.0536743
-0.0732911
-0.0529176
-0.0463428
-0.0462006
-0.0324705
-0.0215509
-0.0134404
-0.00788155
-0.00436351
-0.00234602
-0.00152372
-0.00119988
-0.000863326
-0.000871793
-0.00108463
-0.00101168
-0.00101302
-0.00128276
-0.00099894
-0.000854493
-0.000917687
-0.00100749
-0.00093045
-0.000852526
-0.00096646
-0.00133056
-0.0010064
-0.00142281
-0.000959387
-0.00130233
-0.00106176
-0.00108119
-0.0010113
-0.00148204
-0.0009271
-0.000929068
-0.00143612
-0.00088369
-0.000883234
-0.000929437
-0.000925462
-0.000877291
-0.000974386
-0.00131103
-0.0009755
-0.00149572
-0.0013282
-0.00132483
-0.00121421
-0.00101897
-0.00125704
-0.000980597
-0.00107003
-0.00106716
-0.0013809
-0.0023815
-0.00437432
-0.0078504
-0.0133846
-0.0215537
-0.0327588
-0.0327359
-0.0470563
-0.0471905
-0.0640152
-0.0546503
-0.0571828
-0.0574718
-0.0912182
-0.0662601
-0.0741945
-0.0765329
-0.104413
-0.0539542
-0.0573977
-0.0575443
-0.0550216
-0.0583739
-0.0593619
-0.0896646
-0.0580658
-0.0599361
-0.0507572
-0.0591578
-0.0701014
-0.0556509
-0.0432956
-0.046992
-0.0646061
-0.0643917
-0.0548376
-0.0552178
-0.0414092
-0.0276904
-0.0174604
-0.010448
-0.00592348
-0.00584644
-0.00317849
-0.00317941
-0.00173526
-0.00174202
-0.00219885
-0.00407505
-0.00733844
-0.0125159
-0.0201379
-0.0305271
-0.0405578
-0.0399895
-0.0401553
-0.0270703
-0.0171742
-0.0102967
-0.0102804
-0.00584293
-0.0059143
-0.00321342
-0.00309886
-0.00331212
-0.00442664
-0.00617715
-0.00813177
-0.00533905
-0.00576448
-0.00418003
-0.00286817
-0.00330535
-0.00218901
-0.00216145
-0.00219621
-0.00132228
-0.00148673
-0.00095979
-0.00124324
-0.00169682
-0.00170994
-0.00142059
-0.000884804
-0.000878883
-0.00107973
-0.00102045
-0.00103193
-0.00108495
-0.000864063
-0.00146556
-0.00108452
-0.00107674
-0.000881526
-0.00108092
-0.00108428
-0.00100932
-0.00100948
-0.00101464
-0.00105897
-0.00100939
-0.00101433
-0.00107924
-0.00107972
-0.000882488
-0.00092958
-0.00100477
-0.00141773
-0.000916044
-0.000851734
-0.001707
-0.00169726
-0.00153572
-0.00121142
-0.00168757
-0.00169831
-0.00219466
-0.00207625
-0.00180608
-0.0038829
-0.00339256
-0.00409068
-0.00403016
-0.00738865
-0.00728958
-0.00767039
-0.0102918
-0.0110318
-0.0141358
-0.0185999
-0.0231338
-0.0156857
-0.0173453
-0.0133276
-0.00942868
-0.0107977
-0.00701117
-0.00615041
-0.0119578
-0.010533
-0.0126036
-0.0124733
-0.0126408
-0.0125081
-0.0202803
-0.0201621
-0.0305771
-0.0305543
-0.0291698
-0.0262755
-0.0308842
-0.0279515
-0.0179489
-0.0108308
-0.00615182
-0.00331119
-0.00327113
-0.00322553
-0.00438617
-0.0060653
-0.00596269
-0.00792004
-0.0106663
-0.0104735
-0.00792061
-0.00438661
-0.00327478
-0.00326874
-0.00322287
-0.00237537
-0.00440091
-0.00794244
-0.0135366
-0.013503
-0.0176528
-0.0173107
-0.0216402
-0.0274465
-0.026873
-0.0325677
-0.0399811
-0.0407598
-0.0433064
-0.0696957
-0.0500999
-0.0736995
-0.0538798
-0.0526323
-0.0699268
-0.0525824
-0.0728047
-0.0770698
-0.0807641
-0.077539
-0.10578
-0.0741436
-0.0664611
-0.0624692
-0.0808485
-0.0817579
-0.0593469
-0.0666705
-0.077688
-0.0817073
-0.0757817
-0.0741328
-0.105168
-0.077875
-0.0810128
-0.0811846
-0.0813957
-0.0810619
-0.077567
-0.0809323
-0.0723759
-0.0653475
-0.0777385
-0.0507424
-0.0494544
-0.0536004
-0.0800515
-0.0527481
-0.0517342
-0.0526562
-0.0805206
-0.0528117
-0.0519721
-0.0523258
-0.0803779
-0.0540345
-0.0596232
-0.101956
-0.0816112
-0.0763441
-0.0620229
-0.0589898
-0.0733128
-0.0528954
-0.0463359
-0.0325656
-0.0216162
-0.0134844
-0.00790914
-0.00438043
-0.00235904
-0.00326786
-0.00330409
-0.00286828
-0.00417675
-0.00575652
-0.00533974
-0.00766424
-0.01028
-0.0110215
-0.0141298
-0.0185849
-0.0231256
-0.012985
-0.0173388
-0.0105222
-0.0131546
-0.00780034
-0.0102953
-0.00614342
-0.00754862
-0.00701253
-0.00669194
-0.00937358
-0.00936079
-0.0120533
-0.0136425
-0.0124808
-0.0172565
-0.0161074
-0.0217105
-0.0217051
-0.0200612
-0.0271451
-0.0251658
-0.0332891
-0.0303047
-0.0403538
-0.0368336
-0.0482362
-0.0483366
-0.043264
-0.0556592
-0.0500214
-0.0554298
-0.0554954
-0.0432669
-0.0482341
-0.0482769
-0.055356
-0.0499587
-0.0527957
-0.0434415
-0.0305011
-0.0202208
-0.0126082
-0.00739573
-0.00409666
-0.00388059
-0.00700708
-0.00738665
-0.00728365
-0.0126001
-0.0124642
-0.0133167
-0.0173282
-0.015689
-0.0217883
-0.0275277
-0.029554
-0.0356609
-0.0443238
-0.0518306
-0.0303297
-0.0408866
-0.025872
-0.0336378
-0.0203953
-0.0274805
-0.0169825
-0.0216307
-0.0193868
-0.0185011
-0.0250064
-0.0244432
-0.0307005
-0.0340777
-0.0304876
-0.0403208
-0.0367692
-0.0487992
-0.0480925
-0.0433113
-0.0558228
-0.0497746
-0.0553047
-0.0601459
-0.0435652
-0.048577
-0.045619
-0.0498916
-0.0493177
-0.0521962
-0.0465241
-0.0396303
-0.041523
-0.0496914
-0.0564988
-0.037021
-0.0431875
-0.0304343
-0.020071
-0.0124712
-0.00730969
-0.00405712
-0.00218816
-0.00125147
-0.000980184
-0.00100489
-0.000914911
-0.000708996
-0.000861121
-0.00109185
-0.00102007
-0.00124425
-0.000730816
-0.000903763
-0.0012017
-0.00117022
-0.00106377
-0.00125062
-0.00172198
-0.00157837
-0.00219964
-0.00216663
-0.00309286
-0.0029668
-0.00417554
-0.0041647
-0.00402043
-0.00574527
-0.00532784
-0.00764701
-0.00589875
-0.00582896
-0.00574561
-0.00317927
-0.00309542
-0.00236657
-0.00236403
-0.00136792
-0.00105911
-0.00107576
-0.00102669
-0.0010619
-0.00107698
-0.00131575
-0.00105362
-0.00149843
-0.0014964
-0.00225894
-0.00215935
-0.00309957
-0.00295636
-0.00415806
-0.00418126
-0.00404369
-0.00574525
-0.00552235
-0.00765688
-0.00728818
-0.0102333
-0.00972981
-0.0132739
-0.0132729
-0.0124265
-0.0171966
-0.0168337
-0.0102021
-0.0102341
-0.00775713
-0.00775099
-0.0043339
-0.00320312
-0.0031057
-0.00174822
-0.001749
-0.0013686
-0.00171168
-0.00195319
-0.00230497
-0.00235731
-0.00314171
-0.00315131
-0.00432282
-0.00368604
-0.00524011
-0.00530141
-0.00785853
-0.00729583
-0.0102691
-0.00970339
-0.013266
-0.0133022
-0.0124749
-0.0171889
-0.016149
-0.0216807
-0.020018
-0.0271778
-0.0251637
-0.0332818
-0.0333321
-0.0302891
-0.0403484
-0.0304635
-0.0273777
-0.0175983
-0.0172931
-0.0134888
-0.00791172
-0.00438186
-0.00235999
-0.00322324
-0.00326856
-0.00605986
-0.00613747
-0.00409859
-0.0073995
-0.0126146
-0.0178819
-0.0176367
-0.010656
-0.010466
-0.0059583
-0.00605988
-0.00326956
-0.00297203
-0.00310108
-0.00216701
-0.00309616
-0.00417916
-0.00403728
-0.00574477
-0.00575153
-0.00417658
-0.004178
-0.00404451
-0.00574638
-0.00576066
-0.00418205
-0.00310507
-0.00217125
-0.00309506
-0.00220793
-0.00220151
-0.00220364
-0.00220279
-0.00216799
-0.00309593
-0.00309525
-0.00297022
-0.00417059
-0.00403957
-0.00574783
-0.00574598
-0.00552258
-0.00764922
-0.00729802
-0.0102459
-0.010234
-0.0102316
-0.0102418
-0.00728991
-0.0076618
-0.00765838
-0.00552526
-0.00765971
-0.00730509
-0.010234
-0.0102662
-0.00766957
-0.00550549
-0.00576347
-0.00589625
-0.0040312
-0.00416063
-0.00295888
-0.00309982
-0.0031553
-0.00215929
-0.00220246
-0.00219691
-0.0017476
-0.00124995
-0.00172268
-0.00157943
-0.00173929
-0.00124954
-0.00173558
-0.00157828
-0.00172359
-0.00124793
-0.00174152
-0.00219571
-0.00219424
-0.00156132
-0.00174507
-0.00135951
-0.00105547
-0.000714104
-0.0010208
-0.000975951
-0.000999887
-0.00100214
-0.000712383
-0.00105796
-0.00108396
-0.000975212
-0.0010241
-0.000715169
-0.00130393
-0.000981605
-0.000959828
-0.000878176
-0.00120823
-0.00114246
-0.00110981
-0.00111155
-0.00113891
-0.00106487
-0.00116506
-0.00119888
-0.000850204
-0.000979361
-0.00130124
-0.000959446
-0.00147972
-0.00132313
-0.00219211
-0.0021964
-0.00409917
-0.00739914
-0.0106523
-0.00974107
-0.0132834
-0.0124493
-0.0171894
-0.0172083
-0.0171896
-0.0172666
-0.0124782
-0.0132908
-0.0133039
-0.00971259
-0.0102709
-0.0105395
-0.0072968
-0.00763967
-0.00786159
-0.00530837
-0.00524722
-0.00693553
-0.00670303
-0.00938476
-0.0120703
-0.011499
-0.0158043
-0.0198041
-0.0185279
-0.0250341
-0.0307348
-0.0281471
-0.0369913
-0.0385747
-0.0328135
-0.0262364
-0.0216216
-0.0168089
-0.0134129
-0.0101546
-0.00783865
-0.00578756
-0.00432773
-0.00369064
-0.00375052
-0.00428765
-0.00284788
-0.00280495
-0.001957
-0.0019194
-0.00230717
-0.00314398
-0.00171236
-0.00150025
-0.00149868
-0.0017781
-0.00124795
-0.00171166
-0.0015647
-0.00174979
-0.00136621
-0.00106183
-0.000731765
-0.000905376
-0.00124434
-0.000709482
-0.00109325
-0.00105429
-0.00131587
-0.00107705
-0.000861842
-0.00102049
-0.00116979
-0.00106528
-0.00120147
-0.00107527
-0.00105701
-0.00136224
-0.00235542
-0.00235384
-0.00433194
-0.00777592
-0.0132368
-0.012482
-0.0172599
-0.0177712
-0.0136482
-0.0132755
-0.0102992
-0.00588072
-0.00320801
-0.00320055
-0.00432072
-0.00772809
-0.0131243
-0.0170222
-0.0161228
-0.0217056
-0.0200659
-0.0271415
-0.0273331
-0.0272532
-0.0282845
-0.0201025
-0.0217263
-0.0222803
-0.0155923
-0.0129902
-0.0173116
-0.0171241
-0.0269504
-0.0272641
-0.0275476
-0.0295768
-0.0356663
-0.0258927
-0.028988
-0.0191949
-0.0169979
-0.0202277
-0.0201044
-0.0218083
-0.0305251
-0.0305142
-0.033576
-0.024567
-0.0278425
-0.0202303
-0.0305123
-0.0406704
-0.0400016
-0.0274318
-0.0268692
-0.0173009
-0.0176228
-0.0216226
-0.0216869
-0.0216405
-0.0135036
-0.0106761
-0.0106557
-0.00605994
-0.0059576
-0.0060567
-0.00613499
-0.0107933
-0.00943068
-0.0104079
-0.00591533
-0.00584879
-0.00586791
-0.00589442
-0.00319203
-0.00318144
-0.00173533
-0.00173996
-0.00106716
-0.00321213
-0.0103311
-0.0102926
-0.0171448
-0.0172217
-0.017355
-0.0271115
-0.0269806
-0.0272909
-0.0173257
-0.0335374
-0.0411415
-0.0361219
-0.0485459
-0.040603
-0.0400329
-0.0549254
-0.0550656
-0.055614
-0.0702063
-0.0958051
-0.0973565
-0.0549292
-0.0697666
-0.0971436
-0.0783449
-0.0608692
-0.0770027
-0.0778561
-0.0619047
-0.0594585
-0.102691
-0.0798308
-0.0772107
-0.101029
-0.086207
-0.0862863
-0.0812285
-0.0771083
-0.0528098
-0.0729998
-0.0527403
-0.0462347
-0.0325675
-0.0274669
-0.0176678
-0.0176353
-0.0202805
-0.0202221
-0.0200898
-0.0305172
-0.0304951
-0.0289757
-0.0191851
-0.0119511
-0.0177544
-0.0222708
-0.0201006
-0.0272493
-0.0251293
-0.0334942
-0.0332846
-0.0303656
-0.0402565
-0.0368095
-0.0403575
-0.0304838
-0.0202097
-0.0176141
-0.0178746
-0.0278323
-0.0245732
-0.0274285
-0.0268658
-0.0172985
-0.0104646
-0.0106467
-0.00739433
-0.00409643
-0.00219463
-0.00310267
-0.00319092
-0.00417544
-0.00174334
-0.00220737
-0.00174049
-0.00108433
-0.00114324
-0.00100379
-0.000706807
-0.00106426
-0.00137369
-0.00584483
-0.00587062
-0.00575975
-0.00433676
-0.00578306
-0.00692453
-0.00782995
-0.0077838
-0.0101468
-0.0105285
-0.0133987
-0.0114827
-0.0157858
-0.0155737
-0.019778
-0.0167959
-0.0215994
-0.0212811
-0.0132501
-0.0102806
-0.0102632
-0.0102251
-0.0102407
-0.0131635
-0.0169902
-0.0172602
-0.0168697
-0.0216838
-0.0210915
-0.0264292
-0.0273204
-0.0262176
-0.0282604
-0.032783
-0.0281101
-0.036956
-0.0362558
-0.0426738
-0.0385528
-0.0322393
-0.0459748
-0.0589581
-0.0590288
-0.0600403
-0.0653018
-0.0613631
-0.0521573
-0.0386162
-0.0406525
-0.0318421
-0.0453266
-0.0582592
-0.0662186
-0.0624018
-0.0516237
-0.0380584
-0.0261546
-0.0333206
-0.0271878
-0.0210962
-0.0131701
-0.0318434
-0.0453595
-0.0583714
-0.0665065
-0.0624686
-0.0516317
-0.0380152
-0.0261038
-0.0271751
-0.0265495
-0.0170859
-0.0103418
-0.00728498
-0.00404791
-0.00218274
-0.00199294
-0.00389547
-0.0124012
-0.0198593
-0.0299328
-0.0387748
-0.0523742
-0.0587528
-0.0677884
-0.0622267
-0.0511677
-0.0571024
-0.0608335
-0.0582635
-0.0454441
-0.0451118
-0.0317007
-0.0209991
-0.0131048
-0.00771502
-0.00431196
-0.00235013
-0.00235345
-0.00136419
-0.00174755
-0.00174598
-0.00108284
-0.0012073
-0.00107202
-0.00105844
-0.00136068
-0.0023443
-0.0032015
-0.00295357
-0.00414858
-0.00417957
-0.00409456
-0.00326767
-0.00322109
-0.00168659
-0.00326335
-0.00330008
-0.00207173
-0.00121115
-0.00141946
-0.00181801
-0.00125654
-0.00387563
-0.00612866
-0.00605679
-0.00595437
-0.00604939
-0.0106351
-0.0104596
-0.0106478
-0.00739342
-0.0126066
-0.0126113
-0.0202205
-0.0274032
-0.0251766
-0.0271961
-0.0200167
-0.0271535
-0.0333305
-0.0302969
-0.0402827
-0.0403774
-0.0332672
-0.0333565
-0.0303684
-0.0402364
-0.0406749
-0.0332782
-0.0251526
-0.0335185
-0.0340903
-0.0244707
-0.0204014
-0.0264794
-0.02126
-0.0322079
-0.0459257
-0.0465525
-0.0522067
-0.0590261
-0.0600553
-0.0589001
-0.0653312
-0.0613597
-0.0522212
-0.0386848
-0.0317484
-0.0210294
-0.0262292
-0.0169197
-0.0217057
-0.0216759
-0.0216969
-0.021677
-0.0200609
-0.027242
-0.0271721
-0.0251758
-0.0333004
-0.0303819
-0.0404596
-0.0403452
-0.0368386
-0.0482244
-0.0484216
-0.0483048
-0.036797
-0.0406665
-0.0400165
-0.0325731
-0.0326301
-0.0390868
-0.0462353
-0.0433989
-0.0434619
-0.0700297
-0.0516984
-0.0495885
-0.0728364
-0.0769932
-0.0806818
-0.0775979
-0.0811569
-0.0814338
-0.0765513
-0.0518656
-0.0718808
-0.0510766
-0.0702494
-0.0705375
-0.070254
-0.0705238
-0.0701617
-0.0620645
-0.080227
-0.10521
-0.0551504
-0.0781836
-0.0848122
-0.0810535
-0.0863473
-0.0810801
-0.0766967
-0.102307
-0.0792888
-0.0542201
-0.0596926
-0.1022
-0.0591098
-0.0731552
-0.0539612
-0.0708857
-0.051206
-0.0463126
-0.0391148
-0.039996
-0.0400042
-0.0406587
-0.0399679
-0.0273914
-0.0399812
-0.0391523
-0.0268682
-0.0274068
-0.0176184
-0.0178552
-0.0202242
-0.0305303
-0.0304948
-0.0399794
-0.0434492
-0.0412263
-0.0370427
-0.0618342
-0.0431826
-0.0550322
-0.0564558
-0.0514093
-0.0548659
-0.0622145
-0.0701595
-0.0514672
-0.0494412
-0.0730216
-0.0527469
-0.0512091
-0.0705189
-0.0517286
-0.0720804
-0.0766714
-0.0770831
-0.0808826
-0.0725197
-0.0801912
-0.105144
-0.0781761
-0.0810766
-0.0812389
-0.0813549
-0.0815506
-0.0766667
-0.0521817
-0.07208
-0.0787617
-0.0814081
-0.0787285
-0.0767993
-0.0520669
-0.0722837
-0.051342
-0.0708785
-0.0711343
-0.0642139
-0.0434818
-0.0434396
-0.0640315
-0.0637187
-0.0413307
-0.0435696
-0.0434417
-0.0528001
-0.0636878
-0.0639419
-0.0642407
-0.0592872
-0.0688863
-0.0513405
-0.0379639
-0.0319781
-0.021172
-0.0131994
-0.00775511
-0.00431771
-0.00587203
-0.007665
-0.00762298
-0.005498
-0.00700077
-0.0107822
-0.00969992
-0.0132452
-0.0133012
-0.0124703
-0.0172296
-0.0171952
-0.0132745
-0.00973729
-0.0132905
-0.0102508
-0.00771506
-0.00431642
-0.00586263
-0.00585961
-0.00319839
-0.0102559
-0.0130945
-0.020973
-0.0316521
-0.0381546
-0.0483382
-0.0481612
-0.048321
-0.0381106
-0.0262005
-0.0169075
-0.0161519
-0.0169762
-0.0217193
-0.0216567
-0.0161018
-0.0191615
-0.0119377
-0.0278052
-0.0251196
-0.033313
-0.0333792
-0.0263423
-0.0259977
-0.0167319
-0.0101243
-0.0057708
-0.00313113
-0.00170399
-0.00107248
-0.00131027
-0.00229767
-0.00431639
-0.00781922