/*--------------------------------*- C++ -*----------------------------------*\
| =========                 |                                                 |
| \\      /  F ield         | OpenFOAM: The Open Source CFD Toolbox           |
|  \\    /   O peration     | Version:  2306                                  |
|   \\  /    A nd           | Website:  www.openfoam.com                      |
|    \\/     M anipulation  |                                                 |
\*---------------------------------------------------------------------------*/
FoamFile
{
    version     2.0;
    format      ascii;
    arch        "LSB;label=32;scalar=64";
    class       volScalarField;
    location    "1.4";
    object      gradTx;
}
// * * * * * * * * * * * * * * * * * * * * * * * * * * * * * * * * * * * * * //

dimensions      [0 -1 0 1 0 0 0];

internalField   nonuniform List<scalar> 
5322
(
-0.0177622
0.00113174
0.00116022
-2.00262e-05
-7.96649e-05
-6.2982e-05
-3.97765e-05
-2.39407e-05
-1.46591e-05
-7.59913e-06
-2.50636e-06
1.3376e-05
1.73061e-05
-0.000229235
3.88405e-07
0.000466516
-0.000359239
1.45841e-05
-0.0003162
0.000371574
-0.000486901
0.000790524
-0.000828919
0.00149575
-0.001563
0.00252291
-0.00254359
0.00418386
-0.00423315
0.00630175
-0.00599033
0.0096246
-0.00707031
0.0146598
0.00156719
0.0226105
0.0160561
-0.00635858
0.0175324
-0.00105515
-0.0166497
0.0166782
-0.00100884
-0.0177276
0.0176505
-0.000597548
-0.0188352
0.0166407
-0.000378928
-0.0197834
-0.019682
-0.0281821
-0.00947367
0.0175398
-0.00116193
-0.0285493
-0.000893008
0.0270982
-0.000324455
-0.0270881
-0.000115065
0.0263902
-0.000133027
-0.0266062
3.76766e-05
0.026052
0.000403386
-0.0263552
0.0014586
0.0217825
0.00137156
-0.0201572
0.0229106
-0.0235801
0.0226875
-0.0231153
0.0231309
-0.0231571
0.0263942
-0.0194461
0.00903187
-0.0146073
-0.00997585
0.0151125
0.00118077
-0.00614575
0.0112888
-0.0314268
-0.00944792
0.0338072
-0.00155309
0.000268893
0.000454418
0.00342237
0.0188163
-0.00351532
0.000521435
-0.0010691
0.0116092
-0.0277244
-0.0276477
0.0555298
-0.00109976
0.0145742
0.0238165
0.000789167
0.00029741
0.000198685
9.07579e-05
2.50131e-05
-1.30823e-06
-8.64374e-06
-9.17945e-06
-7.19069e-06
5.02994e-08
-2.98e-06
-0.000147735
-0.000138435
2.12206e-05
8.25441e-05
1.13048e-06
0.000117524
-0.000142235
-1.17962e-05
-4.002e-05
0.00022203
0.000178003
4.37869e-05
0.000141112
8.57591e-05
6.29434e-05
0.00015187
7.02067e-05
7.59901e-05
0.000154377
5.98494e-05
0.000124345
0.000175742
0.000195907
7.74801e-06
-0.000149258
4.35907e-06
0.000105525
-0.000134517
-0.00015079
2.73406e-05
5.31598e-05
2.48645e-05
-0.000117383
-0.0001302
3.15523e-05
2.92445e-05
3.79853e-05
-0.000129106
-0.00011975
3.20258e-05
1.54692e-05
6.59141e-05
-0.000131288
0.000173683
-0.000413969
-0.000538877
0.000621199
-0.00091231
-5.31103e-05
-0.000468921
1.1946e-05
0.000395664
-8.89145e-05
0.000379271
0.000185473
0.000280146
-0.000497717
0.000176546
-0.000431062
0.000370062
0.00048061
-0.000765763
7.34486e-05
-0.000651668
0.000791558
0.000985538
-0.00142293
9.25414e-05
-0.00119438
0.00155093
0.0018988
-0.00260787
0.00016596
-0.00217983
0.00282526
0.00343928
-0.0045646
0.000276194
-0.00381622
0.00477901
0.00583503
-0.00759493
0.000429673
-0.00636084
0.00751571
0.00926618
-0.0119774
0.000642184
-0.0100118
0.0109736
0.0137563
-0.0176389
0.000947522
-0.0145455
0.0145468
0.0181085
-0.00308485
0.0111108
-0.0274367
-0.0279848
0.0557568
-0.0024834
-0.00264186
0.000538256
0.00372326
0.0187439
-0.00253708
0.00071243
-0.0031009
0.0106716
-0.0278917
-0.0275218
0.0554142
-0.00149691
0.0145635
0.000497129
0.000469605
0.000234919
0.000119044
4.10136e-05
5.81337e-06
-5.93116e-06
-8.35425e-06
-6.76076e-06
-5.8171e-08
-2.96921e-06
0.000113271
-0.000127886
0.000128814
-0.00011237
1.14449e-06
0.000111838
-0.00010204
5.54596e-07
-0.000117855
3.68199e-07
-0.000110543
3.48999e-07
0.000103194
4.08337e-06
0.000109213
-9.62483e-06
-0.000119838
-1.1075e-07
0.000118168
9.1774e-08
2.7191e-07
0.000225093
-0.000445453
0.000446542
-0.000438175
0.000597321
-0.000809109
0.00116502
-0.00157832
0.0022031
-0.00292823
0.00395813
-0.00511532
0.00671474
-0.00839811
0.0107416
-0.012929
0.0161203
-0.0183774
0.0223221
-0.0132194
0.000343528
0.0134074
0.000394367
-0.0217288
0.0179163
0.000109195
-0.0156216
0.0126764
6.42366e-05
-0.0104026
0.00825656
3.78671e-05
-0.00650041
0.00503208
2.14558e-05
-0.00382978
0.00288055
1.22991e-05
-0.00212889
0.00155355
7.52994e-06
-0.00112225
0.000801593
4.55918e-06
-0.000572647
1.20978e-06
0.000575312
-0.000797601
-2.51199e-06
-0.00059417
0.000439556
-1.20311e-06
-0.000226533
-1.49177e-05
0.000228961
-0.000461918
0.000570824
-0.000798211
0.00110672
-0.00152824
0.00210615
-0.00281863
0.00380107
-0.00490945
0.00648026
-0.0080398
0.0104471
-0.0123117
0.0158307
-0.0172539
0.0219881
-0.0130671
-0.00330683
0.00545331
0.000594039
-0.0204859
0.0157676
0.000110171
-0.0142868
0.011469
-6.58461e-05
-0.00920891
0.00739691
-8.39721e-05
-0.00570698
0.00446873
-6.45055e-05
-0.00336363
0.00255576
-4.94889e-05
-0.00187016
0.00138918
-3.73962e-05
-0.000984333
0.000727968
-3.03726e-05
-0.000501386
0.000357648
9.39278e-07
-0.000113789
0.000185082
0.000308695
-2.65231e-05
2.80001e-05
-5.82041e-05
0.000184133
-0.000573199
0.000558111
-0.000923883
-0.000622346
-0.000780114
7.64952e-05
0.000389883
0.000436042
-0.00048854
0.000168508
-0.000428787
-4.73786e-05
8.20619e-06
-0.000152591
1.13836e-05
-6.93269e-06
-0.000153919
-1.17281e-05
-4.59144e-05
-0.000444359
-0.00048256
0.000448588
-0.000758899
-5.15933e-05
0.000953691
-0.00141472
0.00186524
-0.00259618
-0.000197218
0.0034007
-0.00454947
0.00577996
-0.00757511
-0.000134316
0.00916748
-0.0118978
0.0135211
-0.0172675
0.00358173
0.00053148
6.14142e-05
9.81776e-05
-0.000166667
-0.00011124
0.00951926
-0.0122172
0.000726137
-0.00990921
0.0102282
0.0141398
-0.0173348
0.00117799
-0.0152483
0.0129091
0.0259612
-0.00193118
0.00149836
-0.0301018
-0.0280115
0.0531134
-0.0036618
0.000471918
0.000871596
-0.0119986
0.00226796
0.00644962
-0.00671293
0.000411647
0.00459507
-0.00407286
-1.43578e-06
0.00275488
-0.00253485
-4.53518e-05
0.0015018
-0.00144185
-6.14405e-05
0.000863092
-0.000769642
-6.11513e-05
0.000479812
-0.00034419
-5.17164e-05
0.000328957
0.000107412
7.28885e-05
-8.13579e-06
-4.05589e-06
0.000205176
-8.54834e-05
0.00117942
-0.00171566
0.00231578
-0.00315848
-0.00203802
-0.00266724
0.000169598
0.00152437
0.00191599
-0.00145104
9.47871e-05
-0.00111203
-8.49937e-05
-4.27174e-05
-1.67671e-05
-3.30738e-05
-5.90977e-05
4.3574e-05
2.13723e-05
-4.54371e-05
-0.00027348
-8.74728e-05
0.000195421
0.000261915
0.000226581
8.22244e-05
0.000408517
0.00013755
0.000176749
0.000194439
-0.000216119
-0.000493476
-0.000824045
-0.000423812
0.000271605
-0.000237444
4.55028e-05
0.000522211
-0.0004642
0.00422147
-0.00554014
0.00720768
-0.00929774
-0.00607484
-0.0078045
0.00045589
0.00460062
0.00597342
-0.00468159
0.000285847
-0.00359413
-0.000176728
-6.75634e-05
-6.47878e-05
-8.43157e-05
-0.0002058
-9.15263e-06
-5.98186e-05
-0.000124631
-1.74276e-06
-2.25574e-05
0.000322396
2.33944e-05
-5.64484e-05
-5.45881e-06
1.09182e-05
3.8042e-06
-1.20276e-05
2.36001e-05
-0.000276917
-2.70923e-05
-1.53778e-05
-4.71796e-06
-4.07216e-06
0.000813968
4.91011e-06
-0.00115899
0.00112885
-0.00154391
-1.80027e-06
0.00159111
1.21625e-05
-0.00219171
0.00214481
-0.00285985
2.21337e-06
0.00295703
2.35399e-05
-0.00393632
0.00386512
-0.00499056
1.15767e-05
0.0051752
4.36663e-05
-0.006677
0.00657205
-0.00817949
3.15057e-05
0.00851308
7.01235e-05
-0.0106825
0.0105303
-0.0125472
7.10435e-05
0.0131045
5.49138e-05
-0.0160171
0.0157899
-0.0177515
0.000118684
0.0184668
-0.000135856
-0.022113
0.0218023
-0.0132933
-3.30171e-05
0.0131801
-0.000947287
-0.00228802
-0.00172276
-0.00278464
-0.0270424
0.00552106
0.00340953
-0.00205485
-0.0041113
-0.00124703
-0.020431
0.00475506
-0.00892042
-0.0117206
-0.00200123
-0.00350908
-0.00467759
-0.00243653
-0.00131345
0.00062025
-0.000710188
-0.00137775
-0.00127222
-0.000757051
-0.00046731
-0.00027741
-8.71607e-05
0.000234747
0.000227665
0.000232942
0.00026756
0.000372214
0.000356189
0.000248338
0.000250292
0.000176258
-0.000154834
4.74732e-05
-1.74645e-05
-1.2058e-05
4.31418e-05
-0.00013485
-3.06818e-07
-1.93209e-08
-1.74379e-07
4.94067e-07
-8.61786e-05
-0.000100306
-0.000100044
-8.66052e-05
8.71446e-05
-6.88821e-05
4.1027e-06
0.000101771
-8.24856e-05
-8.22604e-05
4.23399e-06
0.000100872
4.5227e-07
1.01571e-06
1.10161e-06
9.76033e-07
-5.71448e-06
1.91416e-06
-2.42962e-06
-1.78012e-06
3.57023e-06
1.85596e-05
5.19123e-05
5.19594e-06
-8.45173e-05
-0.000414991
0.000156282
-0.000234565
0.00127773
-0.00178207
0.0117266
-0.0147521
0.0182724
-0.000117427
-0.00517934
-0.00103248
0.00144625
7.9572e-05
0.000580849
0.000855476
-0.00225835
-0.00421111
-0.00830675
-0.0194268
-0.0200221
-0.0450227
-0.0178009
-0.0151133
-0.000210609
-0.0058009
0.00557131
-0.0401443
-0.0245518
-0.0119902
0.0174583
0.00139863
0.000727676
-0.0177793
0.018716
0.000130408
-0.00233412
-0.01938
0.0187685
3.81562e-05
-0.00257924
-0.0189279
0.0187121
0.000146984
-0.00412999
-0.0180741
0.0133593
-0.011623
0.0101936
0.00778238
0.0219181
-0.0103113
-0.00570078
0.00321527
0.012307
-0.0369903
-0.00176221
-0.0214494
0.0211748
0.0205028
0.0187165
0.0236852
0.0103364
0.00152777
0.00850611
0.012336
0.0192216
-0.00624069
0.00165395
0.0106994
-0.00637958
0.000124369
0.0064934
-0.00435573
1.69734e-05
0.0040961
-0.00262322
2.68886e-05
0.0025068
-0.00150598
2.14881e-05
0.00145382
-0.000830942
7.99994e-06
0.000781314
-0.000467749
-1.98737e-05
0.00036952
-0.000309429
-9.94307e-05
3.59334e-05
-0.000307547
-0.000187613
0.0001154
-0.000356367
0.000509818
-0.000721528
3.10727e-05
-0.000569644
0.000462189
5.65527e-07
-0.000227722
1.54326e-05
0.000227206
-0.000224228
2.14104e-06
2.60696e-06
1.09239e-06
1.55462e-06
3.672e-06
7.33138e-06
2.21114e-05
4.05612e-05
7.54237e-05
-0.000300543
1.32201e-06
-0.000124783
0.000851062
-0.000865979
9.89441e-05
8.00233e-05
0.000411744
0.000432235
0.00273437
0.00350608
-0.000195908
-0.00217455
0.00283169
0.000277159
-0.00381116
0.0047774
0.000433008
-0.00637754
0.00749373
0.000650415
-0.0101297
0.0109067
0.000950451
-0.0149338
0.000578849
0.000898442
-0.00230054
-0.00230283
-0.00786053
-0.00395023
-0.00218325
-0.00125951
-0.000758739
-0.0004732
-0.000281786
-9.14314e-05
0.000230159
0.000220233
0.000223244
0.000356133
0.000220844
-9.21375e-05
-0.000282567
-0.00048801
-0.000791875
-0.00129835
-0.00220531
-0.00394924
-0.00761965
-0.0176884
-0.0184712
-0.0316129
-0.0258723
-0.00870451
-0.00865302
0.0158594
0.00165953
-0.00198001
-0.00157911
0.00736352
0.000243174
-0.00600996
-0.00573847
0.00587214
-1.05367e-05
-0.00658071
-0.00628561
0.00518446
8.12529e-06
-0.00817288
-0.0077891
0.00261168
-0.0114893
0.00804491
0.00781353
0.00815841
0.00714733
-0.00977401
0.000757491
0.00345699
-0.0114292
0.00259674
-0.0106077
0.0121278
-0.0261385
-0.00105614
-0.0251658
0.0195902
0.0210524
0.0201631
0.0197695
0.0203733
0.0196737
-0.0272566
-0.00129029
-0.0245799
0.0152982
0.0164216
0.0153646
0.0162178
-0.00106178
-0.0262294
-0.0260502
0.0121625
0.020205
0.0188251
0.0177645
0.0221793
0.0221676
0.0171564
0.00487335
0.0100469
0.00426809
-0.00238595
0.003669
0.000883323
-0.00269945
0.00186444
0.000302932
-0.00194171
0.00120873
0.000197169
-0.00129995
0.000734187
0.00011221
-0.000795459
0.0004487
8.45647e-05
-0.000471739
0.000234762
3.23256e-05
-0.000269411
0.000113604
1.71684e-06
-0.000172941
2.6821e-05
-6.50201e-05
-0.0001758
-7.66398e-05
-0.000221648
-0.000269024
-0.00026315
-0.000176779
-0.000124624
-0.000196108
-7.49814e-06
0.000149486
-0.000109377
1.17155e-05
0.000122535
-0.000121337
5.33918e-06
0.000127071
-0.000130964
-5.05497e-06
-1.02239e-05
-0.000243787
-1.2178e-06
-0.000456496
9.87265e-07
-0.000580509
5.5442e-06
0.000809943
-0.000818837
-8.01206e-07
-0.00111008
4.15409e-05
0.0015415
-0.00139254
5.81835e-05
0.00190173
5.19546e-05
-0.00256153
9.33321e-05
0.00340364
7.37406e-05
-0.00445771
0.000142326
0.00573607
6.99226e-05
-0.00729993
0.000197615
0.00909042
7.99324e-05
-0.0112291
0.000276193
0.0135712
-6.76694e-05
-0.0160605
0.000472539
0.0188787
-0.000118846
-0.000663727
-0.0235887
-0.0170973
0.000785291
0.0185606
-0.000320362
-0.016672
-0.0115761
0.000631536
0.013339
-0.000192002
-0.0111234
-0.00765352
0.000392849
0.00875716
-0.000132847
-0.00699317
-0.00478999
0.000250693
0.00538353
-7.31311e-05
-0.00411741
-0.00282535
0.000151999
0.00310185
-4.46949e-05
-0.00227402
-0.00156614
7.80356e-05
0.00169806
-1.76685e-05
-0.00116414
-0.00081924
3.81112e-05
0.000917189
5.92671e-06
-0.000553806
-0.000397892
4.44583e-05
0.00056953
6.01883e-05
-3.10571e-05
0.000115318
-0.000187729
-0.000308104
3.63051e-05
-0.000100811
3.04814e-05
0.000282179
-2.21698e-05
5.05316e-06
-0.00023096
2.28776e-06
0.000457445
-0.000444581
4.58437e-07
-0.000572899
3.15924e-05
-0.000729752
3.19348e-05
0.00100535
5.2755e-05
1.21858e-05
8.14897e-06
7.99591e-06
0.000604175
7.59509e-06
-3.21159e-06
-0.000102201
8.59669e-08
0.000114182
9.68312e-07
7.0947e-07
6.86625e-07
-1.74407e-05
-2.03742e-05
-1.48168e-05
-0.000150374
-1.29203e-05
-4.50097e-05
-4.62158e-05
-4.5084e-05
-5.17313e-05
0.000968806
0.000800776
-4.45422e-05
0.000135327
5.19239e-05
4.37144e-05
0.000395005
7.41976e-05
-0.000656304
0.000809656
9.2343e-05
-0.00119385
0.00156366
0.000165596
9.83872e-06
-9.40059e-05
-0.000110656
-0.000152436
-0.0001996
-0.000250875
-0.000208873
-0.000157208
-9.64617e-05
-0.000109979
-9.32769e-05
-4.64222e-05
-5.3892e-05
-0.00063964
0.000791556
0.0012782
-0.00169568
0.00243197
-0.0031163
-7.81953e-05
-0.00181832
1.22095e-05
0.00143454
-5.55403e-05
-0.000959228
-1.21537e-05
0.000785522
-6.07696e-05
-1.62356e-05
-0.000745798
-6.11758e-05
0.000985018
-0.00110882
4.24025e-06
-0.0025042
-2.22005e-05
0.00330886
-0.00292662
7.44656e-06
-0.00393319
6.83078e-06
0.00513664
-0.00506715
2.89412e-06
-0.00650009
8.23761e-06
0.00822884
-0.00846155
-2.97282e-05
-0.0101078
9.74749e-05
0.0123475
-0.0150003
1.47878e-05
0.017658
-0.020468
-0.000209765
-0.000616382
-9.94672e-05
-1.67651e-05
2.38412e-05
2.83292e-05
2.28969e-05
1.64918e-05
1.0488e-05
1.69704e-06
3.56e-06
-0.000112364
0.000129649
-0.000127105
-0.00011271
1.05003e-06
1.5479e-06
-5.13511e-06
6.16654e-06
0.00010577
5.06345e-07
-1.19473e-06
-9.60252e-06
1.10422e-05
-1.13277e-05
-0.000146441
-1.2292e-05
-5.15659e-05
0.000349543
7.74698e-05
-1.22218e-05
-6.93299e-06
9.62487e-07
-1.66609e-06
8.24862e-05
8.42869e-05
-2.79566e-06
6.8998e-05
0.000113616
-2.26276e-06
-3.05023e-06
-3.55558e-06
-2.49975e-05
-3.15679e-06
-0.000124086
0.000452836
1.63149e-05
-0.000696356
-9.85791e-06
0.000929491
-0.000826644
-2.32412e-06
-0.00116607
1.30732e-06
-0.00157186
5.64398e-07
-0.0021515
1.07515e-05
0.0028975
-0.00296455
-6.80372e-06
-0.00377921
8.00723e-05
0.0049373
-0.00637665
9.66939e-05
0.00806066
2.09927e-06
1.17725e-05
1.20067e-05
9.67789e-06
6.22176e-06
6.22986e-06
1.15501e-06
3.63517e-07
-4.06359e-06
-6.21515e-06
-6.67569e-06
-1.34021e-05
-3.30495e-06
-3.89484e-06
2.40787e-06
2.38549e-06
3.02751e-06
5.31978e-06
6.47906e-06
1.10728e-05
1.24664e-05
1.34905e-05
2.29699e-05
3.2048e-05
0.000135326
0.000199364
-0.000624674
0.000174549
-0.00104073
0.00357383
-0.0229716
-0.00633648
0.00021488
-0.00208903
0.0109801
-0.010874
-0.0327164
-0.0128482
4.93974e-06
0.00331984
0.00032181
-0.0260589
-0.0114852
-0.00776783
0.0150873
0.00164037
-0.00171401
-0.00286256
0.00799542
0.000246625
-0.00560919
-0.00689455
0.0068765
9.30987e-06
-0.0061489
-0.00722871
0.00640522
5.90948e-05
-0.00789167
-0.00820793
0.00152778
-0.000444386
7.57648e-05
7.79043e-05
0.0177043
-0.0160455
0.000283429
0.013911
-0.000398883
0.000222252
-0.0175796
0.000472552
-0.0108576
0.013059
0.000253949
-0.0148525
-0.0260751
0.0189499
-0.00156316
0.00259268
0.00861536
-0.000222712
0.0207811
0.0151713
0.0170235
-0.0199688
0.00078326
-0.0168608
-0.000420857
-0.0186477
0.0009436
-0.0178701
-0.000428343
-0.0179663
0.000979721
-0.0191952
0.0158246
0.015517
-0.00103475
-0.0318194
-0.0255533
0.0120217
-0.0085582
0.0120341
0.0069469
0.00817965
-0.0104866
0.00289317
0.00224
-0.0117553
0.00437366
0.00793297
-0.00990214
0.0168537
-0.00901486
0.00146778
-0.00869327
0.00133534
-0.00935893
-0.00731686
0.00124232
-0.0006101
-9.52904e-05
-4.77593e-05
1.48927e-05
4.11386e-05
3.62685e-05
2.60126e-05
1.7488e-05
1.07716e-05
1.70312e-06
3.70779e-06
-6.91529e-05
8.77331e-05
1.12722e-06
1.69868e-05
1.20263e-05
9.88547e-06
-0.000109185
-3.89672e-06
0.000135701
-0.000104436
-5.34346e-05
0.000134885
-0.000124627
-0.00017764
-0.000196894
0.000153938
0.000149721
-7.63289e-06
-1.14268e-05
-4.23827e-05
6.14233e-06
0.000155061
-2.22171e-05
-3.17136e-05
-2.95961e-05
0.000129888
0.000130411
-3.23432e-05
-2.15089e-05
0.000155948
-6.84709e-05
-0.000160127
-6.90321e-05
0.000152547
1.42375e-05
1.23164e-05
-7.75569e-06
1.40774e-05
3.13318e-05
0.000283457
-2.25894e-05
1.37795e-05
-1.1169e-06
-4.74509e-06
-9.51863e-06
-1.63602e-05
-2.97441e-05
-5.87096e-05
-0.00011542
2.00041e-05
-4.91625e-05
0.000114741
-0.000726791
-0.000194134
0.000835026
-0.00143334
-0.000493207
-0.000517507
-0.0156159
0.0150024
-0.000447279
-0.000341532
0.00100432
-0.000707353
-0.000360105
0.00274712
0.0049437
0.00264494
0.014448
-0.00665882
0.00174528
0.0110734
0.0123524
-0.00344691
0.00130895
-0.000144526
0.000768317
-0.000183395
5.43477e-05
-0.00120615
-6.07196e-05
6.06656e-05
2.06452e-05
3.26076e-06
-1.97855e-06
7.56565e-06
-1.422e-07
5.71895e-06
5.6668e-06
7.96364e-06
6.47767e-05
0.000131024
0.000219123
0.000334091
0.000480247
0.000721304
0.000369155
0.000109215
0.00021288
0.000120008
5.20498e-05
2.18457e-05
1.5895e-05
8.10299e-06
1.69371e-05
1.26827e-05
-0.00110241
0.000996754
-0.00137479
0.00188188
-0.00253032
6.04329e-05
-0.00208977
0.00153133
4.11399e-05
9.27771e-06
6.62074e-06
7.41505e-07
0.00079991
7.34214e-06
-3.33757e-06
0.000120244
3.27013e-07
6.3952e-06
1.55212e-05
-2.54945e-05
0.000151115
0.000118206
-4.62586e-05
1.94113e-05
-1.57874e-07
-1.93238e-07
7.08965e-05
-2.65284e-06
-1.60937e-07
4.86755e-05
-0.000154575
4.26954e-05
1.02525e-06
1.76526e-05
1.26887e-05
1.397e-06
-1.13101e-05
6.44832e-06
1.25172e-05
-4.63422e-05
-4.25751e-05
0.000151717
-5.39206e-05
-0.000103944
-2.58969e-05
0.000136372
-3.72248e-06
1.54315e-05
8.90882e-06
4.28972e-07
2.24204e-06
6.91472e-06
9.0107e-06
4.59961e-05
1.77052e-05
3.14677e-05
4.66827e-05
5.75945e-05
1.11171e-05
-2.18337e-08
1.65989e-05
-5.21879e-07
0.00282655
-0.00375837
0.00337266
-0.00441692
0.00570667
-0.00727762
0.000147206
-0.00637739
0.0049265
9.33595e-05
1.05581e-05
8.12559e-05
9.23297e-05
0.000126929
0.000130406
2.44228e-05
-1.72028e-06
2.10054e-05
2.15037e-05
3.47311e-05
2.95664e-05
4.22434e-05
9.96049e-05
0.000263836
0.000133437
0.000910094
0.000120441
4.88277e-05
1.69637e-05
2.49203e-06
-3.71222e-06
-9.94331e-07
-1.61158e-06
5.29266e-06
2.86683e-06
1.51917e-06
1.06912e-05
1.17342e-05
8.56002e-06
-6.9314e-06
-8.67437e-06
6.7733e-07
-5.12378e-08
-2.08729e-06
2.13828e-06
4.56907e-06
8.80041e-06
1.54672e-05
1.98924e-05
2.99207e-05
2.38643e-05
3.1699e-05
6.08902e-05
5.23495e-05
3.70967e-05
9.17114e-05
0.000245272
8.3521e-05
8.49847e-05
0.00341422
-0.000580225
0.000383945
7.11438e-05
0.000245571
0.00722901
-0.000278769
-0.00104859
0.00594126
0.00207644
-0.0259749
-0.00953181
-0.0160787
0.0161127
-0.0115257
-0.0123715
0.014572
-0.0171926
-0.000930907
-0.00128979
-0.0165801
0.0148649
-0.000118904
-0.000723893
-2.66853e-05
0.00028578
0.000386886
0.00628449
0.00221589
-0.0114343
-0.0106394
0.0176734
0.00158378
-0.00416781
-0.00128127
0.00688368
0.000173118
-0.0080383
-0.00522462
0.0052442
-1.7645e-05
-0.00835495
-0.00573838
0.00460479
-3.91238e-05
0.00733031
0.00711965
0.000410049
0.0100785
-0.00986429
8.3179e-05
-0.00775702
-6.08744e-05
-0.000134449
-1.97427e-05
7.44784e-06
1.49266e-05
1.17633e-05
7.37721e-06
4.13304e-06
1.98376e-06
-1.03613e-06
-4.36394e-06
9.62879e-05
-0.00117464
0.00156347
0.000168785
-0.00215153
0.00284809
0.00436452
-0.00545721
0.00737192
-0.00907633
-0.000153582
-0.00564002
0.000112822
0.00455052
-0.000115974
-0.00328525
4.5417e-05
0.00261765
-0.000327417
-0.000229252
-0.0025834
-0.000149063
0.00315591
-0.00357487
3.02593e-05
-0.00752602
-2.25689e-05
0.00949804
-0.00830571
2.51518e-05
-0.0104466
2.6293e-05
-0.0126848
-2.27131e-05
-0.0151914
-4.79512e-05
0.0178794
-0.0185725
-1.589e-05
0.0209393
-4.80968e-05
-0.0205962
0.0205215
-6.34416e-05
-0.0180906
0.0182937
-0.0207871
-1.21338e-05
2.12229e-05
0.000113011
7.86826e-05
3.32854e-05
1.007e-05
6.49939e-07
-2.84785e-06
-4.82987e-05
-7.2404e-05
-0.000150538
-0.000189865
-0.00020174
-0.000250401
-0.0037704
0.00481805
0.000437989
-0.00628339
0.00758953
0.0117132
-0.0143635
0.0174594
-0.021291
0.000324767
-0.0155607
0.00151952
0.0115563
-0.000129598
-0.00938677
0.000374211
0.00749585
-0.000747764
-0.000396196
-0.00682806
-0.000130227
0.00842603
-0.00921589
0.000121345
-0.017637
6.9938e-05
0.0211117
-0.018064
-4.9034e-05
0.0207771
0.000140251
-0.0236794
0.0139001
3.4066e-06
-0.0137029
0.0118701
-0.0157769
0.00041313
-0.00294059
-0.00145774
-0.00242638
-0.00402444
0.0159145
-0.0257009
0.00546312
-0.00623724
-0.00295764
-0.00163512
-0.000994
-0.000617581
-0.000371097
-0.000189883
1.28906e-05
0.000727792
0.000325669
-0.000167929
0.000114622
4.26183e-05
0.000431617
-0.000384645
0.000356101
-2.23396e-05
-0.000238213
8.56873e-06
0.000489459
-0.000474117
-3.54355e-06
-0.000602379
3.64392e-07
-0.000811299
-3.22097e-08
-0.00113548
8.49447e-06
0.00156642
-0.00159858
-3.3382e-06
-0.00210502
5.68757e-05
0.00284177
1.4168e-05
5.9233e-06
0.00222363
7.1967e-06
0.00117795
-1.29537e-06
-1.99173e-06
-6.87908e-06
-2.26693e-05
5.72175e-07
0.000237277
1.38913e-05
1.07369e-05
8.49357e-05
0.000150242
-0.000316612
-3.33151e-05
-0.0005827
4.09079e-06
-0.00133385
-1.64408e-05
0.00178837
-0.00158614
1.88051e-06
-0.00219916
2.95353e-06
-0.00290978
2.19171e-06
-0.00385689
1.18563e-05
0.00504181
-0.00516902
-1.42815e-05
0.00668655
-4.15597e-06
3.61346e-06
0.00397626
-1.45924e-07
1.47666e-05
5.64371e-06
-2.81398e-06
0.00114767
-9.1028e-06
0.000593235
3.64876e-05
-3.42783e-05
0.000552171
-1.99873e-05
4.19222e-05
-0.000103441
0.000815805
-7.13786e-05
-0.000127223
-0.00144479
-0.000101806
-0.00204987
1.21359e-05
-0.00447171
-2.66983e-05
0.00577794
-0.00508871
1.60162e-05
-0.00661808
1.4559e-05
-0.00827927
-2.40345e-06
-0.0102774
-8.71451e-06
0.0125829
-0.0129956
-5.04248e-05
0.0155426
-3.05351e-05
-2.46532e-06
1.25859e-05
1.67232e-05
3.06932e-05
2.3749e-05
1.66597e-05
9.83789e-06
8.21883e-06
8.34408e-06
1.31798e-05
9.77009e-06
9.82551e-05
0.000170192
0.000263401
8.88882e-06
3.06655e-05
2.10382e-05
1.81468e-05
1.22812e-05
7.25784e-07
4.30029e-06
-8.65035e-05
-0.000886852
4.74148e-05
-0.000866997
0.00131952
0.000104812
-0.00169542
-0.00173709
0.00134403
0.00125631
0.00010233
-0.0016197
-0.0018527
0.0014239
-0.000938095
4.55311e-05
-0.000838508
0.00068912
0.000725435
0.000715405
0.000696963
4.72241e-05
-0.000920864
-0.000857629
-8.65825e-05
0.00127699
0.000104473
-0.00181732
-0.00166025
-0.000154448
0.00231112
0.000203641
-0.00332362
-0.00301794
-0.00309583
-0.00317286
0.000207085
0.00239166
0.00244059
-0.000153661
0.00226925
0.00020197
-0.0029427
-0.00338874
0.00259462
-0.000158941
-0.00152939
-0.00228727
7.38611e-05
0.00114789
-9.04882e-05
-0.00080123
-0.00117319
3.45021e-05
0.000644234
0.00076825
-0.00042259
4.2882e-05
-0.000410311
-7.17989e-05
-0.000417371
4.27622e-05
-0.000409754
-7.17559e-05
-0.000417647
4.39198e-05
-0.000415941
0.000758248
0.000649945
-7.49623e-05
-4.81202e-05
9.34057e-05
-0.00023225
-0.000230984
-0.000227857
-0.000254397
-0.000241914
-0.000244026
-0.000239998
-0.000237131
-0.000357517
-0.000252182
-0.000229209
-0.000230715
-0.000154689
-5.94215e-05
-7.64033e-05
0.00015575
-0.000174647
0.000457873
0.000463661
0.000460461
0.00046023
0.000477966
0.000438319
-0.000167099
0.000135424
-5.8881e-05
-0.000154563
-7.68424e-05
0.00015496
1.25429e-05
4.62419e-05
4.70315e-05
0.000100418
0.000173562
-5.80818e-06
-0.000254376
0.00420325
0.0003449
-0.00527476
-0.00540807
-0.00500042
-0.00577975
0.000333726
0.00390816
0.00448141
-0.00026078
-0.00275804
-0.00415179
0.000148048
0.00207896
0.00311991
-3.68633e-05
0.000261156
-0.000483228
7.94128e-05
0.00047377
-0.000829795
0.000126769
0.000820616
-0.00132204
0.000233184
0.00148337
-0.00183797
0.000694389
0.00328025
0.000424639
0.00194512
-0.000584035
0.00104122
-0.000540276
0.000679039
-0.000375
0.000442853
-0.000238325
0.00026425
4.05895e-05
-0.000271706
0.00170524
-1.57459e-05
0.000127577
-0.000172534
4.96648e-06
9.43984e-05
-0.000157338
-0.000152143
3.50694e-05
7.04322e-06
-0.000558339
4.24864e-05
-0.00039073
-7.51347e-05
-4.73179e-05
0.000100872
-0.00018363
-0.000263566
-0.000267548
-0.000222448
-7.55238e-05
-0.000176934
-6.37584e-05
-0.000112295
-0.000404661
6.08147e-05
0.000571114
0.000436992
0.000481303
-0.000166963
-0.00037235
-0.000231552
9.49473e-05
0.000297691
0.000299415
0.000519276
0.000813653
0.00121324
0.000245975
-0.00466842
-0.00707796
0.00541749
0.00360115
-0.000403065
-0.000240513
-0.00012401
-0.000109126
0.000487885
0.000735021
0.00106156
-0.000611794
-0.000397587
0.0072707
0.000498583
-0.00795996
-0.00925457
-0.00738791
-0.0114188
0.000363228
0.00590882
0.00887179
-6.89579e-05
0.000116231
5.21863e-05
3.32818e-05
6.41868e-05
0.000115518
-0.0102158
0.0091357
-0.0112745
8.14424e-05
0.000282306
0.000187413
0.000148302
3.27472e-05
-4.71839e-06
0.00807836
3.67408e-05
1.43351e-07
0.0124294
0.000226074
-5.29715e-06
0.000371611
0.000477844
-7.63069e-05
1.1698e-05
3.42905e-05
1.56625e-05
2.31431e-05
-2.04722e-05
2.79805e-05
2.26167e-05
3.60316e-05
3.14358e-06
2.76565e-05
2.43944e-05
8.32407e-06
3.4806e-07
1.36567e-06
1.06943e-07
9.70645e-06
0.00027995
0.000478814
0.000291378
0.000232442
0.000234409
0.000260027
0.000119699
0.000119538
4.30742e-05
7.50491e-05
0.000405417
0.000159066
0.000391747
0.000387292
0.000564406
0.000570614
0.000648686
0.000684508
0.000686456
0.000912109
0.000708814
-0.00988641
0.0111138
0.00101143
-0.0142225
0.000875486
0.00064191
-0.00225005
-0.00310647
-0.021465
-0.0228697
-0.0382515
0.00969065
0.0031555
0.0178122
-0.00647917
0.0104317
-0.00114913
-0.0117236
0.0106452
-0.00024097
0.00722998
-0.000262638
0.0100074
-0.0109929
-0.000889959
-0.00027513
-0.000328773
0.000137679
-0.00115084
0.00752237
-0.000319511
0.000441659
0.000233552
0.000114767
0.000139877
6.39634e-05
5.75454e-05
-0.000185679
-0.000187849
-0.00014952
3.14765e-05
0.000548195
6.5347e-05
-6.9561e-05
-9.02683e-05
0.00458574
-0.00588533
6.8372e-05
-0.011912
6.24409e-06
0.0146943
-0.0127036
2.04679e-05
-0.0154044
2.84564e-05
0.0152432
-3.22383e-06
8.5426e-06
1.53703e-05
3.26305e-05
8.40086e-05
0.000668419
0.000128833
4.13816e-05
1.77515e-05
5.75838e-06
6.03644e-06
5.87907e-06
3.52848e-06
1.82787e-06
0.00114941
2.73373e-06
0.00158927
9.56238e-07
0.000815798
0.000588297
1.38238e-06
0.000454313
0.000237365
6.20932e-06
6.82363e-07
-5.58116e-07
5.58932e-06
3.1421e-06
0.00217135
6.00045e-05
-0.000178065
0.00179629
-0.000123681
9.53852e-05
-0.000275946
0.00271772
-0.00017606
-0.000332878
-0.00433259
-0.000176582
0.00529368
-0.000400935
-0.000231491
0.000236509
0.000152933
1.36072e-05
0.00389528
1.06487e-05
0.00389585
2.70959e-05
3.93038e-05
0.00657544
2.02928e-05
0.00840061
3.97858e-05
0.000103292
0.010423
-0.000614397
0.00727287
-0.000420817
-0.000550161
-0.0104199
7.53009e-05
0.0107235
-0.00117694
0.000285458
-0.000188933
-0.00207068
-0.00552447
-7.50769e-05
-0.000865529
-0.000364084
0.000223935
0.00022384
0.0154369
3.75675e-05
-1.084e-05
-5.64561e-05
-7.52649e-05
-0.000329105
-1.28888e-05
4.59138e-05
3.58534e-05
0.0128713
0.0103513
-9.36479e-06
-1.15043e-06
-3.59636e-05
-9.45195e-05
-0.000129566
-0.000573442
-0.000192016
-0.000174688
-7.94817e-05
-2.63012e-05
0.0105465
-2.56363e-05
5.63266e-06
1.22395e-05
0.000219809
0.000130377
6.46452e-05
-2.04108e-05
-3.13138e-06
0.000336544
0.000482506
0.000696206
-6.01092e-05
0.000293094
0.000244687
-0.000471464
0.00229951
0.00525619
-0.00356262
0.0231855
0.0021806
0.00136793
0.000545213
0.00121955
0.00130861
0.00103792
0.000728079
0.00048367
0.000294608
0.000299096
9.64518e-05
-3.98088e-05
-4.01258e-05
-0.000357352
-0.000174699
-0.000372029
-0.000184336
9.88275e-05
0.000295475
-0.000125268
-9.07447e-05
0.00116426
0.00140106
9.81325e-05
3.99137e-06
7.78654e-06
6.76848e-06
7.76876e-06
8.89985e-06
1.79678e-05
-7.5248e-06
0.000153325
0.000512433
4.30966e-05
4.67261e-05
7.50521e-06
-1.0451e-07
1.10595e-05
1.06105e-05
1.36617e-05
1.52164e-05
-7.97036e-06
0.000168856
0.00025974
0.000268263
0.000378056
-6.19535e-05
-0.000573972
-0.00865466
0.000527462
-0.00842121
0.00994334
0.000799114
-0.0126279
-0.0130608
0.0102248
0.00957241
0.000718341
-0.011899
-0.0139797
0.0109628
-0.000582062
0.00914888
0.0136266
-1.12353e-05
9.07568e-05
-0.000877537
0.00171813
0.00228025
0.00276999
0.00521775
0.0058396
0.0128336
0.0300498
0.00391874
0.0157527
0.0233583
-0.00211771
-0.00125509
0.00150652
0.00140266
-0.000795439
-0.000554705
0.00633924
0.00679815
0.00664358
0.00644322
0.000518415
-0.00904107
-0.00822155
-0.000582186
0.0097299
0.000798281
-0.0135618
-0.0124487
-0.000835012
0.0135192
0.0144146
0.0127974
-0.000814669
-0.00014597
-0.000210862
-1.47799e-05
2.10073e-05
9.1364e-05
2.10224e-05
2.10872e-05
-2.9059e-05
-1.13613e-05
-0.000211134
0.0021387
-0.000242156
-0.000146248
-0.000327259
-0.000297466
-0.000185915
-0.000314853
-0.000143313
0.00567793
-0.00017671
0.000100351
2.53894e-05
9.78795e-06
0.000222715
0.000193838
-0.00260234
0.0129633
-0.00684421
-0.0239498
-0.0277887
0.00243321
-0.0132906
0.00565884
0.00183981
-0.00824494
-0.0091984
-0.000899851
-0.00132179
0.00864294
0.00802017
-0.000813866
-0.00788288
-0.000172302
0.00780618
-2.20846e-05
7.89817e-05
-2.07584e-06
7.55689e-05
0.000278837
0.000289757
0.000184475
4.4445e-05
3.11411e-05
-5.29102e-05
-4.98155e-05
3.64518e-06
-7.29041e-05
-2.57569e-05
-8.06496e-06
0.00036655
0.000482806
0.00048628
-0.000193491
0.000597625
0.000525463
-0.00024633
0.0195926
-0.0011124
0.00129888
-0.0217291
0.000531771
0.000276267
0.00300518
0.00036094
0.000599526
0.00192668
-0.000158999
-2.57313e-05
-0.000135243
0.000574164
0.00503741
-0.000339326
-0.000231911
-0.000145463
9.28301e-05
-0.0141041
0.0161323