/*--------------------------------*- C++ -*----------------------------------*\
| =========                 |                                                 |
| \\      /  F ield         | OpenFOAM: The Open Source CFD Toolbox           |
|  \\    /   O peration     | Version:  2306                                  |
|   \\  /    A nd           | Website:  www.openfoam.com                      |
|    \\/     M anipulation  |                                                 |
\*---------------------------------------------------------------------------*/
FoamFile
{
    version     2.0;
    format      ascii;
    arch        "LSB;label=32;scalar=64";
    class       volScalarField;
    location    "1.4";
    object      gradTy;
}
// * * * * * * * * * * * * * * * * * * * * * * * * * * * * * * * * * * * * * //

dimensions      [0 -1 0 1 0 0 0];

internalField   nonuniform List<scalar> 
5322
(
0.649764
0.0610942
-0.00434908
-0.0271641
-0.0150003
-0.00525851
-9.69796e-05
0.00487761
0.0141541
0.0257698
0.000254376
-0.191665
-0.213023
-0.191224
-0.166005
0.359256
0.480539
-0.000755488
0.33184
-0.393444
0.374219
-0.380224
0.373023
-0.381849
0.380579
-0.373444
0.373145
-0.381049
0.380064
-0.375544
0.377965
-0.378115
0.390537
-0.335632
0.322032
-0.161051
0.31642
0.397159
0.19838
0.214811
0.293117
0.244815
0.253434
0.273601
0.260851
0.258303
0.265009
0.28312
0.262346
0.250508
0.314271
0.152131
0.170323
-0.561295
-0.0306207
-0.324781
0.170735
-0.425926
-0.024236
-0.370179
0.173361
-0.418866
-0.0216391
-0.367429
0.174059
-0.433457
-0.0278733
-0.355344
0.175682
-0.476861
0.0167853
0.418882
0.233318
0.325953
0.243478
0.308372
0.257317
0.307015
0.260686
0.360665
0.0328309
0.121323
0.18335
0.305164
-0.0259609
-0.127459
0.036286
0.0713575
0.132216
0.0151774
0.0346071
0.0063908
0.00100643
0.0011837
0.443886
-0.237036
0.00714161
0.238986
0.00649003
-0.00625039
0.0326291
0.00638929
0.253046
-0.432771
0.38727
0.0052262
-0.00740847
-0.00138163
-0.000228583
0.000412862
0.000469386
0.000576027
0.00131593
0.00264169
-0.00448772
0.00117487
0.136633
-0.0562047
-0.0193132
-0.105461
0.129698
-0.0721895
-0.140667
-0.192417
-0.217437
-0.00876033
0.159371
-0.120265
0.0112674
0.131344
-0.130824
0.00551095
0.136539
-0.14
-0.00442235
0.127518
-0.152966
-0.0121791
-0.0353025
0.23419
0.194016
-0.127149
0.0843093
0.0655367
-0.134036
0.0144487
-0.131331
0.103021
0.105871
-0.116737
-0.00176449
-0.108936
0.109336
0.118016
-0.106022
-0.00035763
-0.101344
0.128649
-0.00839243
-0.00634967
0.404283
-0.316861
0.350373
-0.3721
0.0125693
-0.240107
-0.00514354
-0.002196
-0.0449434
0.115991
-0.23209
0.23091
-0.387628
0.000883844
0.395917
-0.391153
0.407236
-0.416217
0.00172955
0.410038
-0.420138
0.435759
-0.434491
0.0016147
0.424838
-0.427816
0.441601
-0.439858
0.000988394
0.429606
-0.430782
0.443769
-0.441993
0.000831101
0.431829
-0.433336
0.446282
-0.443007
0.00108124
0.432916
-0.436289
0.449523
-0.442224
0.00142638
0.431534
-0.437838
0.451013
-0.433419
0.0018384
0.420998
-0.433589
0.437208
-0.237006
-0.00106447
-0.0174892
0.00728568
-0.00704713
-0.000433049
0.00277739
0.00368374
1.7799e-05
0.444852
-0.235922
0.00199597
0.281254
-0.0382192
-0.0112509
0.00929268
-0.0138494
0.238281
-0.438063
0.00254362
0.00195248
0.00548481
0.0035491
0.00189609
0.00085411
6.11017e-05
-0.00116514
-0.00293962
0.00437568
-0.00157298
-0.109991
-0.117153
-0.117206
-0.110246
0.0225256
0.0388188
0.024476
-0.14811
0.0776909
-0.157069
0.0389092
0.0225697
0.0245215
-0.155229
0.0540557
0.148519
0.0958803
-0.148054
0.0778492
0.161225
0.225111
0.237781
-0.389486
-0.388601
-0.418233
0.303426
-0.376454
0.345519
-0.369999
0.357935
-0.368693
0.362487
-0.370575
0.363566
-0.376132
0.362185
-0.385253
0.358644
-0.394026
0.351311
-0.077319
0.166827
-0.0529878
-0.00914034
0.30415
-0.362856
0.00356107
0.325212
-0.36387
0.00163967
0.335909
-0.357269
0.000766879
0.340723
-0.351413
0.000194284
0.340667
-0.348823
-0.000789175
0.334721
-0.349515
-0.00257617
0.317485
-0.355427
0.00832764
0.265874
-0.0245562
0.265641
-0.356004
0.00834304
0.305013
-0.415825
0.16689
0.275947
0.206234
0.193044
-0.366842
0.240669
-0.34245
0.302898
-0.335632
0.321693
-0.334777
0.327832
-0.337575
0.328551
-0.344809
0.326268
-0.35349
0.320916
-0.350351
0.306142
-0.0504699
0.120733
-0.13811
-0.00255005
0.419662
-0.513317
0.00889495
0.460813
-0.501327
0.00448727
0.469104
-0.483277
0.00175448
0.469099
-0.473997
0.000442619
0.468816
-0.47112
-0.000897328
0.467868
-0.470907
-0.0019272
0.459949
-0.474916
0.0106025
0.408928
-0.472799
0.165902
0.385441
0.342519
-0.171976
0.326567
-0.0775151
0.061543
0.391293
-0.338648
0.315974
-0.297501
0.476529
-0.419552
-0.00331897
-0.469513
0.400479
-0.40967
0.012041
0.431324
0.0192601
0.0083576
-0.12206
0.0119698
-0.00980027
0.00640541
-0.00233819
-0.00083637
0.394335
-0.395106
0.395409
-0.411085
6.61861e-05
0.424154
-0.426932
0.431892
-0.431855
0.00029899
0.435252
-0.43373
0.43855
-0.434123
0.00035279
0.442313
-0.431866
0.443775
-0.421223
-0.000683071
0.000574844
0.000950079
0.00317547
0.00178489
0.00115785
0.446299
-0.431228
0.00228388
0.509981
-0.503928
0.451426
-0.416962
0.00438084
0.506474
-0.48152
0.306887
-0.21357
-0.341288
-0.0231984
-0.00524333
-0.123364
-0.0316987
0.00954855
0.226899
0.296112
0.023611
-0.482241
0.366296
0.00363868
-0.408754
0.373523
-0.000815638
-0.38442
0.378184
0.000165415
-0.371169
0.376729
-0.00265859
-0.370756
0.391286
-0.00669963
-0.353484
0.399464
-0.0251172
-0.315311
0.102343
0.153877
-0.189769
0.00159742
0.310011
-0.263892
0.309716
-0.302834
0.307553
-0.304362
0.495234
-0.434084
-0.00102032
-0.496344
0.432535
-0.431194
-0.00258699
0.490644
-1.77258e-05
-0.00110365
-0.000720559
-0.0284342
0.00641404
0.0396845
0.0431151
0.0175607
0.00752565
0.0248386
0.017594
-0.0226411
0.366612
0.117533
0.0255636
0.0877433
0.0187302
0.00562337
0.00392403
0.00132167
0.000750776
0.00102948
0.000994254
-0.278482
0.000296448
0.284265
-0.281067
0.306884
-0.305308
0.310043
-0.306026
0.50318
-0.434916
0.000818757
-0.499219
0.440414
-0.435142
-4.96219e-05
0.498375
0.00098191
0.00100111
-0.000117364
-0.00286547
-0.00143467
0.00429374
0.00311404
0.000527389
0.013403
0.00961335
0.290356
0.00140929
-0.0133551
-0.00113119
-0.0194655
0.00248586
0.192873
0.368315
0.677039
0.070952
-0.0102847
-0.00477254
-0.0183589
-0.374071
0.00162828
0.348117
0.316836
-0.349695
-0.00255589
-0.368637
0.00271774
0.360171
0.33417
-0.348649
-0.000752104
-0.368677
0.00235139
0.363502
0.340651
-0.351099
0.000255419
-0.371998
0.00628377
0.362662
0.341787
-0.357187
0.000891609
-0.379521
0.0176995
0.357039
0.339483
-0.36529
0.00185193
-0.390023
0.0431327
0.343801
0.33425
-0.369393
0.00389025
-0.393981
0.096289
0.321902
0.321881
-0.0619346
-0.00888237
-0.071726
0.847761
-0.378804
-0.386794
0.626344
0.162847
0.0676009
-0.584432
-0.120515
-0.0705351
0.300173
-0.313362
-0.00546704
0.00655838
-0.0392847
-0.0472431
-0.0048634
0.0125416
0.00726902
0.0029387
-0.00386115
0.00172453
0.00278928
0.000824268
9.69455e-05
-0.000741941
-0.00256205
-0.00492543
-0.017086
-0.00915494
0.23841
-0.238507
0.00287137
0.00153871
-0.242257
0.238698
-0.000564016
0.000992445
-0.00107895
-0.0180801
-0.0114572
0.0432851
0.00469298
0.0498112
-0.0176657
-0.021662
2.49177e-05
0.0797876
-0.0927437
0.093116
-0.0794897
-0.0804694
-0.0687906
0.00256595
0.0923389
0.0830992
-0.0829492
-0.00247121
-0.0930374
-3.77522e-06
1.47292e-05
0.00591232
0.0167651
0.0150062
-0.0332693
0.000647694
0.000163829
0.00097247
0.00280294
0.00682185
0.00294062
0.0239685
-0.0189046
-0.0021382
0.0135794
0.299253
-0.27314
0.315338
-0.310773
0.318832
-0.00766515
-0.28269
0.00818419
0.316679
-0.00116781
-0.013871
0.00285935
0.00197279
0.00392594
0.0046471
-0.00334379
-0.0469821
0.161021
-0.0718439
-0.30878
-0.0391534
-0.0372351
-0.608608
-0.167784
0.0213986
-0.245534
0.181525
0.00834681
0.0102798
0.219736
0.18433
0.0258347
-0.0206061
0.24442
0.219661
0.0278528
-0.024833
0.221789
0.250506
0.0259601
-0.0572532
0.183967
0.255796
-0.0886339
0.133389
-0.116302
0.124301
-0.490815
-0.266579
0.0481882
-0.121142
0.263857
-0.0159115
-0.432531
0.228243
-0.00456172
-0.271064
-0.26796
-0.389564
0.163858
-0.214217
-0.137184
0.238287
-0.494165
-0.0554761
0.347512
-0.427687
-0.0110032
0.372141
-0.39148
0.00082016
0.374938
-0.37722
0.00190822
0.373106
-0.373319
0.00209577
0.372743
-0.372321
0.00572513
0.374613
-0.369862
0.0229081
0.386347
-0.331357
0.0932295
0.321402
-0.179464
0.341007
0.385145
-0.477599
0.407595
-0.479395
0.0110323
0.239892
-0.367015
0.16572
0.192116
0.207976
0.275921
0.237306
0.16677
0.321297
0.191335
-0.00160624
-0.0278973
-0.0156574
-0.00983208
-0.00596503
-0.0115959
-0.00613672
0.00169449
0.00614692
0.285645
-0.276892
1.42566e-06
0.000478868
9.62416e-05
3.10261e-05
-0.497174
0.436217
0.000201833
0.43722
-0.439545
0.000462656
0.440183
-0.441776
0.00110885
0.442097
-0.444255
0.00197608
0.441752
-0.444377
0.0025164
0.43089
0.00276807
0.00533498
0.000829094
3.33911e-06
-0.00125772
-6.12589e-05
0.000373386
0.000409212
0.000359106
0.000234268
0.00017991
0.000231219
0.00226096
0.00641739
-0.232224
0.00345635
0.0114947
-0.000605765
0.000407247
0.000616201
0.000393492
-4.53894e-05
-0.000788785
-0.00195955
-0.00285428
0.0104279
-0.00295534
-0.00782304
-0.0102311
0.204309
-0.218047
0.27639
0.000400443
-0.0372008
0.0310803
0.102578
0.000582736
-0.0911537
0.0858032
0.0879779
0.000328874
-0.0975117
0.0915354
0.0785618
2.11948e-05
-0.12248
0.116506
0.108888
-0.00206998
0.135711
-0.142896
0.139332
-0.150111
-0.0138627
-0.0829108
0.120454
-0.00990562
-0.11454
-0.00243289
-0.000765735
0.411203
-0.00142951
-0.413613
0.2392
-0.00832007
-0.247366
0.247812
-0.00538855
-0.259746
0.416607
-0.00392048
-0.416426
0.408729
-0.406806
0.404507
-0.414286
0.000946492
-0.4127
0.407217
-0.000825813
-0.247494
-0.00905002
0.249685
-0.212352
0.00196142
0.373655
0.133321
0.393528
0.143866
-0.203295
0.310691
0.0286409
-0.271973
0.293794
0.00591632
-0.284372
0.28746
0.00135614
-0.283984
0.286666
0.000216201
-0.286623
0.284346
-0.0013505
-0.286499
0.284685
-0.00685588
-0.292954
0.270502
-0.0310093
-0.310201
0.202743
-0.147544
-0.393463
-0.11915
-0.368452
0.240814
0.0225463
0.0120397
0.153895
0.036008
-0.23696
-0.195264
-0.0542987
-0.15105
-0.0979386
-0.0765017
-0.167305
-0.0835939
-0.08882
-0.166185
-0.243348
-0.252174
-0.166555
0.41383
0.0228239
-0.243528
-0.008552
0.333897
0.392853
-0.00442584
-0.289725
0.00190698
0.323847
0.480456
0.00456333
-0.473292
0.000334734
0.47807
0.00111591
-0.475411
0.00129058
0.47673
0.000623077
-0.47704
-0.00100408
0.475527
0.000505087
-0.478886
-0.000171638
0.473725
-0.0010032
-0.481993
-0.00415929
0.465996
-0.00685918
-0.487258
-0.0170946
0.00214203
-0.299521
0.486585
0.0030572
0.312574
-3.13276e-05
-0.30416
0.497416
-0.00016313
0.308162
3.56546e-05
-0.30637
0.500101
-0.000132298
0.30735
-0.000283289
-0.306026
0.500896
9.65248e-05
0.306131
0.000439084
-0.307051
0.501257
0.000327361
0.306384
0.000102631
-0.307428
0.501274
0.000548155
0.304053
0.00051369
-0.310828
0.498189
-0.00136286
0.300856
8.44012e-05
-0.317624
0.475204
-0.0187683
0.340958
-0.0609799
0.078363
-0.387067
-0.341335
0.178095
-0.325471
-0.0954903
-0.065966
-0.680554
-0.370454
-0.325071
-0.230977
-0.167
0.37081
0.428912
0.031139
-0.230723
-0.01092
0.485461
0.0144104
-0.464469
0.00548658
0.00350672
0.00740099
0.0187349
-0.319969
-0.0154589
0.155882
-0.0229414
-0.0220927
-0.0420164
0.149028
-0.0492794
0.0202992
0.0178359
0.000468013
0.00134324
0.00122616
0.000716277
0.000610826
0.000185401
-0.00241932
-0.00176061
0.425061
-0.492741
0.00187929
-0.00255891
-0.00479137
-0.000355188
-0.405244
-0.00041592
0.41302
-0.431568
-0.000428772
0.431155
-0.437381
-2.66786e-05
-0.000131695
-0.00106327
-0.000513239
-4.42233e-05
0.000747551
0.000674995
0.000592606
0.000382807
0.000250126
0.000153125
0.00119758
0.00187288
0.00073777
0.409844
-0.412706
0.375062
-0.377342
0.378478
-0.377907
0.00210222
-0.197691
6.35032e-05
0.186455
0.0067206
-0.20859
-0.000741338
0.158482
-0.0161846
-0.0130497
0.0593444
0.00272226
-0.0640678
0.472582
-0.00641973
-0.296787
0.00113092
0.303956
0.395741
-0.00282268
-0.312392
0.000393275
0.316698
0.383073
7.37568e-05
-0.31641
-4.76677e-05
0.313961
0.384031
0.00251162
-0.319891
-0.000639655
0.307867
-0.323248
-0.00114478
0.290136
-0.330758
0.0130377
-0.00940649
-0.00240769
-0.00091799
-3.19884e-05
0.000255512
0.000532485
0.0014349
0.00300028
-0.00445731
0.00135973
0.11014
0.116012
0.117403
-0.0349421
0.158744
-0.0166487
-0.017289
0.163057
-0.0308542
0.148673
-0.0479842
0.00585833
-0.0132298
0.0127479
-0.00318894
0.00288121
-0.00234116
-0.390062
0.0102663
0.0115153
0.00245438
0.000140163
-4.31646e-05
-0.0828086
0.0821313
0.00258469
-0.0698554
0.107127
-0.0218256
0.00920478
-0.00374591
-0.00425233
-0.0208128
0.154504
-0.384192
0.0232084
-0.257995
-0.0105784
0.326787
0.401232
-0.00943308
-0.295104
0.00259786
0.386467
-0.00707538
-0.305794
0.00119487
0.320062
0.387445
-0.00174105
-0.314334
0.00042432
0.317665
-0.317523
-0.000158574
0.31459
0.000608738
0.000225164
-0.000114721
-0.000378794
-0.00128289
0.00941532
-0.00621524
-0.000281852
0.00253849
3.71314e-05
-0.00236577
-0.0111224
-0.00937449
-0.00255727
-0.00254131
0.00235547
0.00662925
0.00126677
0.00584531
0.00160499
0.00377594
-0.00849375
-0.0119998
-0.0256352
-0.028405
-0.0607697
-0.0510164
-0.0308243
-0.118225
-0.367799
0.0317864
-0.568337
-0.417626
-0.299473
-0.199058
-0.17966
0.0711542
-0.161472
-0.0158034
0.0378614
0.00147035
-0.00623156
0.193751
-0.229006
0.281567
0.00267207
-0.0329841
0.052376
0.119609
0.00507048
-0.0813794
0.111813
0.112076
0.00552489
-0.0872764
0.115615
0.104871
0.00418169
-0.116708
0.13056
-0.00622575
0.00371521
0.0186891
0.0800657
-0.343599
-0.498466
0.00547728
0.466447
0.0133504
0.0098747
0.301561
0.00182689
-0.494784
0.500938
-0.000748691
-0.473514
0.278306
-0.319411
0.284639
-0.0313064
-0.297434
0.016131
-0.33109
0.461508
-0.40428
0.420273
-0.00142683
-0.421286
0.000773901
0.417547
-0.00125035
-0.419217
0.000245729
0.421095
-0.00122696
-0.422858
0.41111
-0.473257
0.0272304
-0.327928
0.448801
0.0208622
0.0108048
-0.123502
0.134027
-0.138285
2.94269e-05
-0.115512
0.106109
0.00754504
-0.131917
0.0938941
-0.10717
0.00484202
0.191959
-0.115805
0.071054
0.0177084
-0.136443
0.1073
-0.00212596
-0.0023308
-7.13357e-05
0.00453144
0.00282146
0.00146337
0.000650548
4.68107e-06
-0.00113
-0.00286675
0.00440954
-0.00136572
0.0690607
0.0794609
0.000147174
-0.018826
-0.0116354
0.149703
0.0542481
-0.127052
0.0653414
0.0844268
-0.133002
0.00433922
-0.154
-0.0119609
-0.0359053
-0.124387
0.19502
0.237203
0.0123872
0.0435182
-0.0105759
0.00594725
0.104041
-0.111802
-0.00135253
-0.117277
0.116946
0.111797
-0.103996
-0.000717261
-0.141888
-6.95089e-05
0.141841
3.13411e-05
7.1773e-05
-0.00257944
0.0084733
0.00375392
0.0633952
0.676418
0.367941
0.189298
-0.00154086
-0.0248766
-0.0139705
-0.00771511
-0.0104291
-0.0224193
-0.0471023
-0.0514954
-0.104757
-0.116048
-0.246849
-0.4168
-0.371074
-0.374308
0.159017
-0.249807
-0.0969232
-0.105084
-0.323953
-0.426368
-0.378529
-0.378107
-0.38333
-0.376924
-0.427336
0.161257
-0.0458301
-0.134019
0.511475
-0.160328
-0.306442
-0.299175
-0.0782766
-0.0971163
-0.226555
-0.238075
-0.0626251
-0.0964494
-0.023538
-0.00767285
-0.00132594
5.22896e-05
0.000259066
-0.000746478
-0.00442934
-0.00519316
-0.0192602
-0.00809893
-0.0029803
-0.00569085
-0.0035711
-0.00489802
-0.0119005
-0.0304353
-0.0126783
-0.0123454
-0.0143332
-0.00680717
-0.00188449
-0.000128777
-0.000316841
-0.00122215
-0.00122307
-0.00364701
0.302073
0.456322
-0.472874
0.464623
-0.47108
-0.000626711
0.320654
-0.336134
-0.00155163
-0.00286715
0.00150848
0.00524499
-0.342987
0.0157779
-0.156286
0.096433
-0.0300287
-0.00933289
-0.0110827
0.0142727
-0.134253
0.105463
-0.000790783
-0.000380124
-0.000388844
8.79626e-05
0.0687874
-0.0023636
0.000295506
0.000291296
-0.000199807
-0.0434882
0.000222146
0.018023
0.0111781
0.01476
-0.012271
0.0103106
-0.000166602
0.00106936
-0.0433688
0.133978
0.133015
-0.0841223
-0.014176
-0.0666186
0.127817
0.0112218
0.0024756
5.46328e-05
6.51458e-06
-0.00254038
-0.00231585
-0.00238317
-0.000476556
-0.0103785
-0.000870571
-0.00236581
0.000795534
0.00533469
0.00121602
0.00346037
-0.334831
0.326695
0.466798
-0.472282
0.467835
-0.477696
0.00120378
0.327142
-0.336733
0.000294324
5.34802e-05
9.15456e-05
0.000546204
0.00126412
0.00304768
0.00254281
0.00562834
0.00309904
0.00656381
0.00673256
0.0161718
0.0137619
0.0145988
0.00647686
0.0862446
0.00118511
0.00206862
0.000978357
0.000223994
-0.000770268
-0.00277194
-0.00308079
-0.0011779
-0.0011041
-0.000716102
-0.000159018
0.00011221
0.00024859
0.000396025
0.000348338
0.000207175
-0.00103871
0.00139726
0.00132197
3.28309e-05
0.000156444
0.000284545
0.000456174
0.000811002
0.000928873
0.000865171
0.00174607
0.00205104
0.0014867
0.00332467
0.00435938
0.00359556
0.0226569
-0.028795
-0.0410665
-0.00798424
0.00449756
0.00598863
0.0061194
-0.101017
-0.00170358
-0.000976798
-0.00150115
-0.00983587
-0.00382924
0.213942
-0.0027956
-0.285004
-0.00206705
-0.012915
-0.263927
-0.0114683
-0.0155864
-0.165629
-0.0736724
-0.126783
-0.315396
0.0305984
0.0804219
0.00542542
-0.00423736
-0.00356666
-0.00662338
0.00186019
-0.191546
0.272908
0.00192962
-0.0600682
0.0265164
0.0945594
0.000447009
-0.117863
0.0748658
0.0759422
-0.00055401
-0.121956
0.0801783
0.0668514
-0.00130305
-0.111759
0.0253357
-0.151252
0.0668353
0.105941
-0.147005
0.0444121
0.0218672
-0.0089122
-0.00198779
-0.000707581
0.000161685
0.000328778
0.000496423
0.00133068
0.0024794
0.00312702
0.00294967
0.00434746
0.419123
-0.418932
0.00181574
0.421208
-0.421328
0.378807
-0.379089
0.379555
-0.381162
0.00137384
-0.198842
-0.00100757
0.193795
0.0013776
-0.196586
-0.000217715
0.193263
-0.00114335
-0.000780646
0.0625372
0.00120519
-0.0620168
0.46915
-0.000237997
-0.30031
7.07784e-05
0.303343
0.391774
0.00185457
-0.316432
-0.000639784
0.373738
0.00711379
-0.322307
-0.00237081
0.289612
0.36769
0.00631726
-0.396961
0.0093075
-0.329921
-0.393104
0.00847908
0.35732
0.2972
-0.324279
0.0102059
-0.00876759
0.00308696
0.00159911
0.00089971
0.000185674
-0.000601821
-0.0016152
-0.000782941
-6.1594e-05
0.000659791
0.000404143
0.000585223
0.000243218
0.422277
-0.423638
0.00173049
0.423153
-0.427086
0.381977
-0.382741
0.387742
-0.375092
-0.0145227
-0.19772
-0.00624163
0.200544
-0.00131624
-0.203555
-0.00272725
0.194849
-0.00256612
0.00220087
0.0699632
0.00505261
-0.0556269
0.466486
0.00200209
-0.29542
-0.00237215
0.302567
0.36496
0.00566419
-0.407405
0.0108542
-0.289271
-0.516576
-0.00219651
0.446497
-0.029986
0.168396
0.00128672
0.121915
0.0767485
0.0448632
0.0288437
0.22815
-0.144566
-0.0130405
0.00602458
0.000158188
-0.000485587
-0.000164165
-5.85048e-05
-0.000853298
-0.00510202
0.00163008
0.276462
-0.198352
-0.320994
-0.0733265
0.0609881
-0.157595
0.505181
-0.232954
-0.284638
-0.275454
-0.161084
0.37952
0.419623
0.0219091
-0.25972
-0.00941285
0.388554
-0.00834782
-0.289541
0.00280115
0.32448
0.389168
-0.00482315
-0.307598
0.000987133
0.320073
0.00167639
0.00192764
-0.378525
0.00583249
-0.365032
0.0337584
0.0345368
0.00107935
-0.203413
-0.340656
-0.237755
-0.167958
-0.354217
-0.125334
-0.0636349
0.037154
0.0105663
0.479731
-0.00744433
-0.289821
0.00213948
0.308387
0.397596
-0.00741756
-0.306941
0.00116758
0.384857
-0.00266759
-0.312992
0.000371727
0.31721
0.385975
0.000277954
-0.386226
-0.000384462
0.00034861
-0.383687
0.00694415
0.00709841
0.0192411
0.00579403
-0.358127
0.0162315
-0.289574
0.00108807
-0.0531103
-0.0827407
-0.0224147
0.0226123
-0.00917103
-0.442375
-0.00118834
-0.00308322
0.062477
0.00123608
0.470213
-0.00238876
-0.299316
0.000438606
0.302665
0.394166
-0.000230751
-0.314906
7.29196e-05
0.380322
0.00273286
-0.318957
-0.000847289
0.306781
0.37959
0.00608503
-0.391594
0.0010321
-0.000606373
6.5088e-05
0.000297124
0.000337442
0.000243593
0.000152639
7.98668e-05
-0.00118101
-0.00308011
-0.00073214
-0.00081056
-0.00102676
-0.000117919
0.000433128
0.00066868
0.000834983
0.000197341
0.00031654
-0.000188884
-0.00022775
-0.00109828
-0.000556015
0.429515
-1.77254e-05
-0.429358
0.431866
3.71359e-05
-0.436315
0.436525
-0.431341
0.435537
-0.000641617
-0.442449
0.435496
-0.433023
0.429051
-0.00192099
-0.437377
0.417491
-0.416028
0.416421
-0.41768
0.00187478
-0.429365
0.438063
0.000993091
-0.435751
0.000736585
-0.435897
0.443315
0.000592708
-0.441398
0.00026474
-0.437649
0.444207
-0.437964
0.438287
0.000109829
0.436691
-0.436079
-0.000160732
0.44126
-3.92942e-05
-0.443311
0.437334
-0.43594
-0.000941103
-0.498609
0.307253
-0.000450348
0.493316
-0.00235648
-0.495822
0.310346
0.00130516
0.480369
-0.421748
0.404612
-0.00147378
-0.411562
-0.000482068
0.401489
4.40141e-05
-0.401386
0.000901277
0.411881
0.00149823
-0.404715
0.422793
-0.481681
0.00341144
0.00509568
0.0046474
0.0171254
0.0116767
-0.241509
0.249081
-0.245423
0.245369
-7.35841e-05
-0.000725257
-0.00068702
-0.249057
0.241345
-0.0118092
-0.00680341
0.129064
-0.144147
0.000510212
-0.000937979
0.400762
-0.405728
0.405963
-0.400962
0.414396
-0.436287
-0.0118759
-0.00454801
-0.129064
0.00678135
0.144082
-0.00594737
0.00264563
0.00254625
7.4822e-05
0.000131678
0.000192014
0.00021801
0.000176225
-0.437763
7.00196e-05
-0.43817
0.438569
-0.443214
0.438163
0.000125131
0.44346
-0.436992
-9.0726e-05
-0.498644
0.306382
3.32875e-05
0.497203
-0.30548
9.36469e-06
-0.279271
0.284372
0.0028121
-0.280195
0.285037
0.00385823
-0.279366
0.289434
0.00722712
-0.277516
0.296181
0.00620554
-0.280839
-0.00944385
-0.000116176
-0.00138524
0.0023787
0.000307187
0.0012381
-0.0001826
0.000344604
-0.000961922
0.00135331
0.00548123
0.289487
-0.303659
-0.000420843
-0.268906
0.305785
0.0298702
0.0122531
-0.000496601
0.0120633
-0.202293
-0.000287696
0.317537
0.0185183
-0.473849
-0.00303864
-0.00473262
0.024808
0.0170585
-0.0225759
-0.240474
0.367726
0.1194
0.3911
0.145365
0.0827289
0.0198786
0.0603815
-0.340887
0.435673
-0.413688
0.0118311
0.00197327
-0.0187698
-0.00500844
-0.00260365
0.00745145
0.00170849
0.000698246
0.000827796
0.000650723
-0.498652
0.306267
-0.306638
0.499278
3.64481e-05
-0.000763136
-0.00227059
-0.000500995
-0.000651932
-7.73234e-06
0.000160091
0.000829843
0.000619062
-0.437021
3.73431e-05
-0.441921
0.438275
-0.498338
0.305872
0.00133024
0.501508
-0.308713
0.00299624
0.000319341
-0.00093784
-0.00174794
-0.00590551
-0.00438317
0.323377
0.468159
-0.488581
0.0401929
0.00707663
0.00331469
0.0117766
0.00571313
0.0137929
-0.341839
0.0119804
0.0327574
-0.347596
0.00279476
0.00151529
0.00107982
0.0019818
0.00302582
0.00412224
0.00189949
0.00123817
0.00071375
0.000535263
0.0004152
0.000610943
0.000808564
0.000570054
0.000445532
0.000581397
0.000729422
0.000607624
0.00106207
0.00110404
0.000578399
0.00129261
0.00107418
0.00153297
0.00113959
6.62919e-05
-0.000922954
-0.000323407
0.00215781
0.00404704
0.000336234
-0.0230755
0.00275082
0.000563505
0.000932901
0.00114303
0.00126954
0.00106068
0.00225446
0.00139364
0.00263403
0.00145604
0.422392
-0.430945
0.00215767
0.414472
0.00692816
0.00135591
0.00337609
0.0176028
-0.0679244
0.168552
-0.134361
0.283334
0.0414116
0.193542
-0.155807
0.126045
-0.135919
0.0860728
0.0980925
-0.148448
0.0339598
-0.154738
0.09095
0.0944947
0.185425
-0.00862702
-0.00233992
-0.0236016
-0.00113905
-0.107584
-0.00167263
-0.000753728
0.000656859
0.000886334
0.00167788
0.000991256
0.000652711
0.000851511
0.000643933
0.000159059
0.000587057
0.000343609
0.002404
0.00114942
0.000492797
-0.470819
0.468903
0.00108043
-0.299647
-0.000756394
0.30539
0.384898
0.00511151
-0.318126
-0.00194394
-0.388678
0.001677
0.00093714
0.000221448
0.0004666
0.000233243
0.00250592
0.000600509
0.00027767
0.000453749
0.000433899
0.000439992
-0.000587054
-0.00139661
-0.00310501
-0.352074
0.00626488
0.324305
0.0185714
0.336177
-0.297213
-0.324324
0.382666
-0.256502
-0.241517
-0.200106
0.00226954
0.00211494
0.00192733
-0.380665
0.0129429
-0.00151233
-0.0618092
-6.56097e-05
0.00500987
-0.000552636
-0.46655
3.10676e-06
-8.0655e-05
0.0633902
0.00227551
-0.0614692
0.000407074
0.00295063
0.000974146
0.00172376
0.000369398
-0.389617
0.000419382
-0.379241
0.00133719
-0.000288022
-0.393635
-0.000278055
0.314725
-0.00304306
-0.0014688
-0.396719
0.00618045
-0.477651
0.0188837
0.0127858
0.0970986
0.0101255
-0.490787
0.0338008
0.00146561
0.00409425
0.0280484
0.186202
0.440919
0.228967
0.336714
-0.0165454
-0.00473356
-0.400822
-0.0113004
-0.0225986
0.010727
0.227177
0.327605
-0.0172487
-0.00562522
-0.00173997
0.310273
-0.385519
-0.00565339
0.000492445
-0.0174375
-0.0314736
0.000744724
0.209788
0.32994
-0.0181925
-0.00599514
-0.00202347
-0.388479
-0.00200624
-0.000309237
9.16577e-05
0.00186059
0.00470686
0.00144451
-0.0257227
-0.00732082
-0.000244176
-0.00256476
-0.00628963
-0.00405948
-0.00692648
-0.00117211
0.191565
0.369413
-0.0690352
0.0596295
0.0266005
0.0330295
0.00919109
-0.00211816
-0.00080582
-0.000184231
9.97876e-05
0.000292222
0.000770752
0.00240617
-0.000127227
-0.000156409
-0.00105234
0.00156519
0.000878117
0.000970511
-0.00188637
-0.0183953
-0.0255682
-0.00774041
0.00270602
0.0027351
-0.495212
0.434303
0.00130661
0.00136325
0.00136513
0.00261644
0.00324922
0.00309112
0.000651029
-0.0084248
0.123625
-0.413802
0.0210483
0.00117993
0.00109176
0.00061578
0.000596769
0.00108226
0.000391729
0.00036329
0.000330347
0.000526574
0.000181234
0.000241725
0.00023551
0.000904104
0.000897853
0.437434
-0.000163944
-0.437122
0.437463
-0.000652476
-0.433243
0.432947
-0.436988
0.443601
-0.000440839
-0.437402
0.435834
-0.435294
0.00167439
0.504078
-0.313248
0.0059331
0.00260654
0.00210454
0.00121923
-1.09421e-05
-0.0104407
-0.0176723
-0.0356685
-0.0840691
0.00453275
-0.036143
-0.0119571
-0.00356043
0.00485442
0.00414002
-0.000485832
4.6358e-05
0.000967935
0.000502252
0.444269
-0.438077
0.438741
-0.444115
-0.000151702
-0.437425
0.44252
-1.36619e-05
-0.443801
-0.000643349
-0.434721
0.437665
-0.000252482
-0.43935
0.432355
-0.498461
-0.00160208
-0.0024055
-0.0010256
0.000309448
0.000586859
0.00221836
0.00513998
0.0213457
0.0858036
-0.0267407
0.855822
-0.02047
-0.00448271
-0.0156356
-0.150098
0.0304092
0.0859755
0.0074824
-0.00123808
-0.0839334
-0.00136841
0.00257207
0.00622926
0.000396692
0.000481243
0.00656131
0.00348524
-0.264652
0.21811
-0.0087145
-0.00610435
-0.000423768
0.0447172
-0.0101838
0.0369964
0.0592978
0.0956345
0.190098
0.0471482
-0.122746
0.0483303
-0.154462
0.0378951
0.0210583
-0.117304
0.00661199
-0.00239157
0.000273092
-0.000587185
5.14954e-06
0.00221126
-0.00104354
-0.00233255
-0.000331699
-0.00273163
-0.00095845
1.21159e-05
-0.000146805
0.000178529
-6.59459e-05
-0.000157989
-0.000880045
4.08874e-05
0.00122983
0.00248428
0.0102081
0.108386
0.455098
0.0260654
-0.080826
0.292367
-0.00464584
-0.0624259
-0.0207928
-0.0299041
0.849482
-0.0162414
-0.00471964
0.00533749
0.00215705
0.00544327
-0.0759446
-0.00163778
-0.00176593
-0.0163548
-0.15113
-0.129187
-0.0779454
-0.304803
0.0310697
0.0759248
0.00389045
-0.00428281
-0.00449677
-0.00239569
-0.093758
-0.0046434
0.0449633
-0.0269964
0.0478582
-0.00270477
-0.08553
-0.00505684
-0.00280002
-7.91855e-05
0.0052119
0.0191033
0.00251055
0.00332213
0.0177592
0.0173282
0.000836231
-0.00177588
-0.000445397
0.00105112
0.00299553
-0.00136415
-0.00110828
0.013501
0.323045
0.0141046
-0.000315901
0.00188049
0.000448346
0.000136478
-0.000156041
-0.00150402
0.0011654
0.437291
-0.499056
0.00126594
0.00052993
0.000428952
0.000442122
-0.500427
0.438253
9.29287e-05
-0.437987
0.444022
-0.443427
0.000347197
0.438416
0.000316157
0.000126116
8.82591e-06
-7.94929e-05
0.000549236
0.00104666
0.000199648
8.10423e-05
-0.000216272
-0.000957253
0.00152143
0.437197
-0.431252
0.431003
-6.29163e-05
0.00011116
0.000203721
0.000177791
-2.14668e-05
0.438407
-0.501232
-6.30251e-05
-0.000182262
0.000154316
-0.000691313
-0.000727006
-0.501573
0.437394
-0.000542241
-0.000371938
-0.00100959
0.00102443
7.717e-05
0.000128794
-0.013023
-0.0207667
-0.0843499
-0.0134616
-0.00139433
5.29206e-05
0.000412549
2.92251e-05
0.000113529
0.00123799
-0.00136654
-0.00156167
-0.000355272
-0.00023413
-0.00190415
-0.00119492
-0.00112816
0.000316806
-0.00174044
0.0013233
-0.0019496
-0.00677447
-0.00058443
-0.00239696
-0.015004
0.0107271
0.0298914
-0.000609442
0.0011976
-0.428149
0.00326229
0.0132451
0.0867186
-0.00176645
-0.00251607
-0.0186833
-0.176604
-0.108466
0.0246562
-0.00314191
-0.00247863
-0.00196004
-0.022378
-0.00286335
0.163081
0.0493224
-0.00835456
0.0347163
0.245826
0.0214348
-0.00359795
-0.0064279
-0.00759942
-0.0114149
-0.283017
-0.251965
0.00186609
0.0255297
0.00945763
0.0410473
-0.0776385
0.00048327
0.00452066
-0.0115702
0.000180543
-0.382838
0.00538705
0.0011335
-0.000244161
-0.00163192
7.86451e-05
-0.00136503
-0.460579
0.319172
-0.371228
0.0193739
0.184399
0.31453
-0.000173597
-0.000344817
0.00110331
-0.0792284
-0.300522
-0.0208835
-0.00476655
-0.00116916
-0.00254517
-0.0885048
0.000670724
-0.278657
0.00709627
-0.270533
-0.00209418
0.0368384
0.00135952
-0.105922
0.0499158
-0.0100392
0.332662
0.000390681
-0.283653
0.0213712
0.089073
0.0166183
1.71356e-05
0.00149106
0.000323414
0.00504651
0.321661
-0.503075
0.00165983
-0.167358
-5.16303e-05
0.0219707
0.0345547
0.0193608
0.00660049
-0.000437881
-0.00746117
-0.0201075
-0.0351663
0.000317978
0.206108
0.245232
0.243939
0.170948
-0.405987
-0.382085
-0.0188779
0.386849
-0.008238
-0.472769
0.0796546
0.0130397
-0.0551162
0.0607694
0.00382138
-0.056648
0.058774
0.00239171
-0.0544096
0.0593739
0.00191488
-0.0539764
0.0582943
0.000115012
-0.0556604
0.0559512
-0.00402933
-0.060729
0.0507116
-0.0150153
-0.0802434
0.0302439
-0.064826
-0.15552
-0.0745739
-0.23302
-0.28612
-0.279833
-0.237974
-0.253288
-0.263348
-0.251955
-0.272122
-0.258692
-0.257018
-0.267897
-0.256127
-0.273424
-0.271595
-0.253263
-0.33687
-0.157808
-0.151853
0.582233
0.0370019
0.32783
-0.161975
0.424094
0.0268171
0.376376
-0.16651
0.40153
0.0223039
0.388107
-0.167022
0.397021
0.023066
0.408494
-0.161708
0.385363
0.0246098
0.500831
0.0604334
-0.0431162
-0.320963
-0.00303954
-0.242943
0.156362
-0.211363
0.185504
-0.199534
0.193572
-0.194336
0.196647
-0.193403
0.196909
-0.191933
0.199957
-0.185821
0.210449
-0.157163
0.242552
0.00438163
0.302786
0.213373
-0.0847319
0.238738
-0.222635
-0.0108701
-0.00522055
-0.122076
0.128891
-0.114745
0.212174
0.0287395
0.0344858