/*--------------------------------*- C++ -*----------------------------------*\
| =========                 |                                                 |
| \\      /  F ield         | OpenFOAM: The Open Source CFD Toolbox           |
|  \\    /   O peration     | Version:  2306                                  |
|   \\  /    A nd           | Website:  www.openfoam.com                      |
|    \\/     M anipulation  |                                                 |
\*---------------------------------------------------------------------------*/
FoamFile
{
    version     2.0;
    format      ascii;
    arch        "LSB;label=32;scalar=64";
    class       volScalarField;
    location    "1.4";
    object      gradTz;
}
// * * * * * * * * * * * * * * * * * * * * * * * * * * * * * * * * * * * * * //

dimensions      [0 -1 0 1 0 0 0];

internalField   nonuniform List<scalar> 
5322
(
-0.871574
-0.889457
-0.917721
-0.994839
-0.986409
-0.982972
-0.981601
-0.98196
-0.98444
-0.992242
-0.98078
-0.983518
-0.740156
-1.02045
-1.11583
-0.890737
-1.05292
-0.788274
-1.10988
-1.12008
-1.12727
-1.12234
-1.12305
-1.12916
-1.12932
-1.12332
-1.12398
-1.12949
-1.13021
-1.12492
-1.12505
-1.12752
-1.12014
-1.1026
-1.04867
-0.861135
-0.979609
-0.998274
-1.03045
-0.725768
-0.958259
-0.988942
-0.712755
-0.9904
-0.980717
-0.724596
-1.00412
-0.947829
-0.714948
-0.981761
-1.09961
-0.788923
-1.07373
-1.00859
-0.945517
-0.958898
-1.13763
-0.944028
-0.955389
-0.959908
-1.1515
-0.956753
-0.95578
-0.936236
-1.15069
-0.988918
-0.951223
-0.889182
-1.12337
-1.04987
-0.787903
-1.22766
-1.16921
-1.15259
-1.16483
-1.15916
-1.15857
-1.15449
-1.16954
-1.10739
-1.05348
-0.809915
-0.83951
-1.13463
-0.773696
-1.02874
-1.38866
-0.848426
-0.869721
-0.78149
-0.98819
-0.883135
-0.93179
-0.924432
-1.12245
-0.972302
-0.968791
-0.986256
-1.41329
-0.825726
-0.83266
-0.794256
-0.993724
-1.10925
-1.20669
-0.940193
-0.997425
-0.999401
-0.995481
-0.99625
-0.996075
-0.995288
-0.993807
-0.996983
-1.14778
-1.13659
-0.795396
-0.861908
-1.14805
-0.949936
-0.842012
-1.02413
-1.00978
-1.4226
-1.05972
-1.39301
-1.00017
-1.04437
-1.36909
-0.99594
-1.02214
-1.38144
-1.01137
-1.00311
-1.38776
-1.02567
-1.00933
-1.42485
-1.0605
-1.39311
-1.00266
-0.844883
-0.95003
-0.849845
-0.796874
-1.14819
-0.861947
-0.855889
-0.786295
-0.791475
-1.14592
-0.857059
-0.853747
-0.786741
-0.793374
-1.14562
-0.85878
-0.849443
-0.844586
-1.11566
-0.889429
-1.0543
-1.22604
-1.19844
-0.76027
-1.11009
-0.788349
-1.06782
-0.731122
-0.988756
-1.02168
-0.949052
-0.982781
-1.14068
-0.938277
-1.15559
-1.14751
-1.10831
-0.926237
-1.10639
-1.13257
-1.1349
-1.12472
-0.940934
-1.126
-1.1297
-1.13114
-1.12756
-0.944619
-1.12859
-1.13017
-1.13115
-1.12811
-0.946418
-1.12955
-1.13132
-1.13282
-1.1274
-0.948001
-1.1297
-1.13312
-1.13566
-1.12578
-0.949238
-1.12906
-1.13344
-1.13729
-1.1249
-0.946847
-1.12956
-1.11424
-1.11792
-0.984041
-1.41408
-0.82604
-0.823114
-0.796998
-1.12249
-1.11941
-0.931867
-0.924684
-1.119
-0.980024
-0.956924
-0.992507
-1.40908
-0.83045
-0.82296
-0.798464
-0.980459
-1.11559
-0.968425
-0.979741
-0.997671
-0.995305
-0.996682
-0.996471
-0.99553
-0.993906
-0.996947
-1.14773
-1.13687
-0.791892
-0.789439
-0.788826
-0.791842
-1.14548
-0.853682
-0.858481
-0.863726
-1.02188
-1.43553
-0.853922
-1.14552
-0.858217
-1.42748
-1.04125
-1.36448
-0.995231
-0.863934
-1.02178
-1.36478
-0.728626
-0.978886
-0.938854
-0.937764
-0.983077
-1.14666
-1.1085
-1.13422
-1.12474
-1.13081
-1.12745
-1.13106
-1.12803
-1.13297
-1.12732
-1.13623
-1.12544
-1.13857
-1.12374
-1.12492
-0.971413
-1.41347
-0.990041
-0.968435
-1.11164
-1.13226
-0.947334
-1.13307
-1.13044
-0.949672
-1.13359
-1.13024
-0.948309
-1.13201
-1.12964
-0.946593
-1.13087
-1.12839
-0.944687
-1.13067
-1.12535
-0.940916
-1.13413
-1.1052
-0.925981
-1.15716
-0.949174
-1.15586
-1.10645
-0.925989
-1.14784
-0.982837
-1.14042
-0.946989
-0.73751
-1.02388
-0.890918
-1.16085
-1.11075
-1.13206
-1.1313
-1.13015
-1.13163
-1.13189
-1.13113
-1.13445
-1.12984
-1.13957
-1.12414
-1.14597
-1.11315
-1.12776
-0.976716
-1.39287
-1.03113
-0.933117
-1.197
-1.21564
-0.916697
-1.21759
-1.21241
-0.919496
-1.216
-1.21023
-0.917187
-1.21206
-1.20895
-0.915249
-1.21074
-1.20917
-0.913996
-1.21083
-1.20857
-0.911779
-1.21534
-1.19886
-0.898872
-1.22585
-1.05408
-1.11528
-0.988401
-1.04423
-0.911056
-1.0713
-0.729046
-0.832084
-0.946484
-0.868869
-1.18793
-1.15697
-1.11461
-1.10709
-0.923706
-1.14811
-1.16479
-0.904345
-1.14528
-1.00596
-0.956749
-0.94045
-1.3861
-1.11845
-1.06037
-1.42313
-1.02022
-0.951107
-0.971328
-0.944004
-1.15709
-1.10518
-0.935954
-1.13494
-1.12534
-1.13127
-1.12842
-0.931111
-1.1318
-1.12905
-1.13372
-1.12826
-0.929621
-1.13665
-1.12614
-1.1377
-1.12565
-0.925683
-0.932867
-0.933581
-0.933672
-0.934805
-0.931339
-1.14031
-1.12623
-0.947844
-1.13594
-1.12502
-1.14378
-1.1197
-0.943654
-1.14098
-1.09591
-1.22023
-0.937126
-1.38142
-0.839588
-0.803328
-0.816779
-1.08063
-0.876795
-0.780532
-1.14045
-0.76373
-1.09775
-1.13804
-0.762249
-1.12045
-1.13094
-0.760041
-1.12867
-1.13076
-0.759259
-1.1248
-1.1232
-0.759455
-1.12874
-1.1227
-0.760563
-1.126
-1.11415
-0.759808
-1.11578
-0.85501
-0.824354
-1.02701
-0.896688
-0.999358
-1.03646
-1.15566
-1.16785
-1.1575
-1.16448
-1.12925
-1.13155
-0.942709
-1.13319
-1.1325
-1.12973
-0.939645
-1.12636
-0.934182
-0.883878
-0.886711
-0.788331
-0.919187
-0.892248
-0.855941
-0.997845
-0.990602
-0.980227
-0.989269
-0.768205
-1.2518
-0.693309
-0.930708
-0.988169
-0.965774
-0.969983
-0.998122
-0.983087
-0.980407
-0.999922
-0.970199
-1.03583
-0.910622
-1.02515
-1.02882
-1.16259
-1.1616
-1.16619
-1.15888
-1.13253
-1.13041
-0.946363
-1.13298
-1.13592
-1.13154
-0.944471
-1.13097
-0.932582
-0.884477
-0.883891
-0.785203
-0.916676
-0.906671
-0.86801
-0.916242
-0.886058
-0.850736
-1.02207
-0.909411
-0.785798
-0.991242
-0.995658
-0.984414
-0.984161
-0.928635
-0.901449
-0.895118
-0.786352
-0.980116
-0.967345
-1.10788
-0.934539
-1.13511
-1.13311
-1.12627
-0.941076
-1.12442
-0.930382
-1.13132
-1.13017
-1.12872
-0.944938
-1.12771
-0.929166
-1.13115
-1.13121
-1.12911
-0.946966
-1.12901
-0.928536
-1.13245
-1.13351
-1.1282
-0.948817
-1.12946
-0.927525
-1.13395
-1.13723
-1.12538
-0.95016
-1.12977
-0.925741
-1.13206
-1.13982
-1.12312
-0.947015
-1.13117
-0.921201
-1.11131
-1.12198
-0.982443
-0.966699
-0.982603
-0.801917
-0.826138
-0.793911
-0.752081
-1.07749
-0.76744
-1.03578
-0.851512
-0.815916
-1.06593
-1.09285
-0.918903
-0.969162
-0.969137
-0.976456
-0.99609
-0.976815
-0.9784
-1.00192
-0.973852
-1.00111
-0.979408
-0.972365
-0.974492
-0.978115
-0.986261
-0.974238
-0.975031
-0.741858
-1.01327
-0.896845
-0.932733
-0.937095
-0.955119
-0.986917
-1.14333
-0.861936
-1.06203
-1.04867
-1.05998
-1.07563
-0.842675
-1.05862
-1.06242
-1.05737
-1.14441
-0.773347
-0.778434
-0.777058
-0.775822
-0.77333
-0.770592
-1.14617
-0.775814
-0.774998
-0.77527
-1.14624
-0.777109
-1.151
-1.1524
-1.15001
-1.02026
-1.01843
-0.946152
-0.93324
-0.931015
-0.931733
-0.932329
-0.93249
-0.884422
-0.786094
-0.914504
-0.90443
-0.864874
-1.03181
-1.02675
-1.17718
-1.14126
-1.20244
-0.922375
-0.993844
-0.847619
-1.04191
-0.919911
-0.976547
-0.996727
-0.970308
-0.968266
-0.970044
-1.00653
-0.993347
-0.978327
-0.928753
-0.889589
-0.898009
-0.934021
-0.737157
-0.807361
-1.09247
-0.989384
-1.03602
-1.06215
-0.703416
-0.878091
-0.926133
-1.09443
-0.728993
-0.914738
-0.931255
-1.0997
-0.731927
-0.903244
-0.942199
-1.09562
-0.74574
-0.892404
-0.997404
-1.3626
-1.01724
-0.992626
-1.24805
-1.20982
-0.985225
-0.745433
-1.07378
-1.00935
-0.945041
-0.956901
-0.949722
-0.715269
-0.980031
-1.1001
-0.78869
-1.05418
-0.810369
-0.840255
-1.13502
-1.07659
-0.871427
-1.14182
-1.10831
-0.894351
-1.13425
-1.12156
-0.896412
-1.13009
-1.12483
-0.897588
-1.12742
-1.12561
-0.896638
-1.12662
-1.12533
-0.898098
-1.12437
-1.1257
-0.882918
-1.12053
-1.10938
-0.860674
-1.06827
-0.906399
-1.04293
-0.98723
-1.05373
-1.22625
-1.19815
-0.898873
-1.16304
-0.889075
-1.11577
-1.02346
-0.737662
-0.945786
-0.979549
-1.14068
-0.934169
-0.981284
-0.982595
-0.992956
-0.984331
-0.986865
-0.983774
-0.98199
-0.916594
-0.889603
-0.853801
-1.0348
-1.03575
-0.914249
-0.911439
-0.97161
-0.98803
-1.13217
-1.13349
-0.932904
-1.1281
-1.13051
-0.947163
-1.12923
-1.13176
-0.948898
-1.12945
-1.13344
-0.949962
-1.12868
-1.13293
-0.946751
-1.12736
-0.99241
-1.00146
-0.981632
-0.987351
-0.975432
-0.970119
-0.971347
-0.973247
-0.975524
-0.979201
-0.987453
-0.977312
-0.978201
-0.737391
-0.979551
-0.933724
-0.982407
-0.981434
-0.992598
-0.984152
-0.980858
-0.978896
-0.97712
-0.97578
-0.978961
-1.02309
-1.01729
-0.742923
-1.32606
-0.999699
-0.959519
-0.932493
-1.09969
-0.733182
-0.734968
-0.804488
-1.14654
-0.767044
-0.778609
-0.79368
-1.15308
-0.770547
-0.782096
-0.786817
-1.14826
-0.786912
-0.800416
-0.869151
-1.44867
-1.03092
-1.00651
-1.01131
-1.00221
-0.849231
-0.818299
-0.872337
-1.44332
-0.863063
-0.864804
-1.15074
-0.958341
-0.955255
-0.935355
-0.995038
-0.712263
-0.98504
-0.985785
-0.726105
-1.00028
-0.94655
-0.954805
-0.956557
-1.16024
-1.15636
-1.16666
-1.15081
-0.955782
-0.901727
-0.981569
-1.15252
-0.965755
-0.732913
-1.02555
-0.899863
-0.73167
-1.22553
-0.676314
-0.934171
-0.818716
-1.00576
-1.01173
-0.845063
-1.03515
-1.02519
-0.868638
-1.02829
-1.03452
-0.850793
-1.0347
-1.02647
-0.871124
-1.02568
-1.03493
-0.848194
-1.03364
-1.02681
-0.868687
-1.02167
-1.03655
-0.845419
-1.00967
-1.01664
-0.826326
-0.947038
-0.690775
-1.24754
-0.89765
-0.76905
-1.42443
-1.01011
-1.05993
-1.39147
-1.00165
-1.04249
-1.36751
-0.9946
-1.02356
-1.38128
-1.01392
-1.00039
-1.38692
-0.744033
-0.954049
-1.14388
-0.941074
-0.949674
-1.15454
-0.926033
-1.10636
-1.1069
-0.934513
-1.13247
-0.911706
-1.12988
-1.2082
-0.786052
-1.21095
-0.758527
-1.20815
-0.785128
-1.20903
-0.758243
-1.20927
-0.785279
-1.20957
-0.75859
-1.20986
-0.78587
-1.20964
-0.759464
-1.21261
-0.787313
-1.21053
-0.760893
-1.21727
-0.789553
-1.20048
-0.759676
-0.895062
-1.1466
-1.11982
-0.94192
-1.16475
-0.908904
-1.16417
-1.12995
-0.936605
-1.16389
-0.909407
-1.16204
-1.13093
-0.934736
-1.1619
-0.908805
-1.16227
-1.13088
-0.933661
-1.16259
-0.908458
-1.16042
-1.13124
-0.933803
-1.16143
-0.908441
-1.16101
-1.13258
-0.934872
-1.16416
-0.907901
-1.1602
-1.13733
-0.940271
-1.14974
-0.896284
-1.1939
-1.14774
-0.956844
-0.865136
-0.831302
-0.72995
-0.98873
-1.0443
-0.906569
-1.06862
-0.858327
-0.892324
-0.904046
-0.930766
-0.93482
-0.976863
-1.14113
-0.938613
-0.980716
-0.946188
-1.16097
-0.899316
-1.19793
-0.788487
-1.21506
-0.759819
-0.992026
-0.981773
-0.969385
-1.14862
-1.01856
-1.42642
-0.858462
-1.14553
-0.854172
-0.862633
-1.06082
-1.05602
-1.04781
-1.05672
-1.06322
-1.43508
-1.01961
-0.949496
-0.934379
-0.935682
-0.938415
-1.1364
-1.13795
-0.939912
-0.984299
-0.976374
-0.970245
-1.14726
-0.926464
-1.10821
-1.13315
-0.941251
-1.12524
-1.13033
-0.945148
-1.02358
-0.933336
-0.934297
-0.934041
-0.934612
-0.932187
-0.934451
-0.933883
-0.932852
-0.932336
-0.931121
-0.93342
-0.934627
-1.10873
-1.13328
-1.21462
-1.20814
-1.21024
-1.20794
-0.758819
-1.12645
-0.785517
-1.12461
-0.760047
-1.12713
-0.788265
-1.12079
-0.881749
-0.847026
-1.03363
-0.907997
-1.02435
-1.16277
-0.934794
-1.13197
-0.941455
-1.12902
-1.1304
-0.933312
-1.12919
-0.945352
-1.12898
-1.12946
-0.931639
-1.12932
-0.945509
-1.13051
-1.13058
-0.930868
-1.13145
-0.914723
-1.13279
-1.1315
-0.91393
-1.13718
-1.11121
-0.902646
-1.00137
-1.00146
-0.996213
-0.996434
-0.996153
-0.995375
-0.993888
-0.997089
-1.14779
-1.13632
-0.79249
-0.786047
-0.790431
-0.856721
-1.43414
-1.01982
-1.0205
-1.42171
-0.856234
-0.861287
-1.06285
-1.06016
-1.11898
-1.05941
-1.42723
-1.01831
-0.946088
-1.16214
-0.899671
-0.996013
-0.976968
-1.15017
-1.14413
-0.775073
-0.772519
-1.14623
-0.769954
-0.785594
-1.1458
-0.977473
-0.935629
-0.886847
-0.940307
-1.38436
-1.19595
-0.95723
-1.14604
-0.923508
-1.11587
-1.10473
-0.93829
-1.13262
-0.940729
-1.12414
-0.932467
-1.1292
-0.943879
-1.12831
-1.12737
-0.929912
-1.13027
-0.913915
-1.13096
-1.13089
-0.914323
-1.13154
-0.932846
-0.932353
-0.931855
-0.931215
-0.933461
-0.976895
-1.15012
-1.14393
-0.955449
-1.00002
-0.977558
-0.99592
-0.976643
-0.955394
-0.999796
-0.933953
-0.935796
-0.932408
-0.931938
-0.933447
-0.930743
-0.980851
-0.978821
-0.977132
-0.979981
-0.977937
-0.906514
-0.887686
-0.891738
-0.899437
-0.733681
-1.01871
-0.750228
-1.35924
-0.981126
-0.958316
-0.959907
-1.11269
-0.986004
-1.03276
-0.981071
-1.34958
-0.966852
-0.957901
-0.930961
-1.09503
-0.73148
-0.744861
-0.812052
-1.14019
-0.763789
-0.790419
-0.804039
-1.14651
-0.767232
-0.791607
-0.799543
-1.14171
-0.785179
-0.805165
-1.16193
-0.997557
-0.93191
-0.924705
-1.13159
-1.20661
-0.916771
-1.21904
-0.762371
-0.913494
-1.18025
-0.933326
-1.12069
-1.1465
-0.935017
-1.09902
-1.18491
-1.13185
-1.04964
-0.836038
-0.957035
-0.889138
-1.10714
-1.17059
-1.15254
-1.11689
-0.938895
-1.10721
-0.930877
-1.11291
-0.93867
-1.10741
-0.931618
-1.11391
-0.94126
-1.1078
-1.17337
-1.14669
-0.955682
-0.84765
-1.00866
-1.15358
-0.845022
-1.01276
-1.03037
-0.990875
-0.864029
-0.862866
-0.868128
-1.43462
-0.86924
-0.957855
-1.3756
-1.03412
-0.994141
-0.844462
-0.857965
-1.15915
-0.796753
-0.796238
-1.15579
-0.983426
-1.00402
-0.99954
-0.995642
-0.996412
-0.996201
-0.995384
-0.993863
-0.99702
-1.14779
-1.13661
-0.769934
-0.773098
-1.05189
-1.04778
-1.05958
-1.36422
-1.04164
-0.844442
-0.849652
-0.94969
-0.862007
-0.842369
-1.00987
-1.42487
-1.05999
-1.38419
-1.0012
-1.39072
-1.11904
-1.07658
-1.06042
-1.42214
-0.856334
-0.856885
-1.14592
-0.788521
-0.788018
-0.857057
-0.856233
-0.860675
-1.01533
-1.39946
-1.01589
-1.43354
-1.0192
-1.02023
-0.94038
-0.788811
-0.894096
-0.900984
-0.931129
-0.984113
-0.983799
-0.995541
-0.987187
-0.984042
-0.982232
-0.980611
-0.979359
-0.97617
-0.981347
-0.980219
-1.01358
-0.747486
-0.819345
-0.82399
-1.41408
-0.958109
-0.968672
-0.998911
-1.32246
-0.740357
-0.822298
-0.824798
-0.752782
-0.83263
-0.847832
-1.38882
-0.99635
-1.02871
-0.781918
-0.869798
-0.948748
-0.892522
-0.905215
-0.982291
-1.02486
-1.02245
-0.982029
-0.980434
-1.01009
-1.00345
-0.996643
-0.993262
-0.991947
-0.976144
-0.973462
-0.973183
-0.967496
-0.980718
-0.919467
-0.917656
-0.917121
-0.916689
-0.915469
-0.911844
-1.00493
-0.989219
-0.989831
-0.986064
-0.981984
-0.978789
-0.978247
-0.975705
-0.990531
-0.990122
-1.13398
-1.21469
-1.2079
-1.21041
-1.20782
-0.913165
-1.13097
-1.12936
-0.911236
-1.03459
-0.933265
-0.934546
-1.10812
-1.01866
-1.42663
-0.995266
-0.946291
-0.976653
-0.996016
-1.14801
-0.795561
-0.787042
-1.06387
-1.0553
-1.0632
-1.05147
-0.769222
-1.1463
-1.05189
-1.06005
-0.863242
-1.07664
-1.05232
-1.04706
-1.05926
-1.06227
-1.11922
-1.06014
-1.06267
-1.06416
-1.07736
-0.79448
-0.862311
-0.949605
-1.14794
-0.850138
-0.844039
-0.996118
-0.977813
-1.15029
-1.14364
-0.955455
-0.977808
-0.935816
-0.886878
-0.788467
-0.883989
-0.785801
-0.930959
-0.930525
-0.931579
-0.929233
-1.13059
-1.13123
-1.20981
-1.20752
-1.21121
-1.20697
-0.91556
-1.13212
-1.13116
-0.91415
-1.03907
-0.883855
-0.784908
-0.884031
-0.7848
-0.932047
-0.928579
-0.93406
-0.930129
-0.934223
-0.929489
-0.933383
-0.931301
-0.882416
-0.786602
-0.928475
-1.04033
-1.04042
-1.03956
-1.03838
-1.03464
-1.0182
-0.999123
-0.997449
-1.02249
-1.00367
-0.999407
-1.02389
-1.0053
-0.999588
-0.997639
-1.01928
-1.01842
-0.999077
-1.0023
-1.00044
-1.00277
-1.00376
-1.00038
-1.02458
-1.00579
-1.00048
-1.02417
-1.00496
-0.999131
-1.01984
-1.0356
-0.929497
-1.11536
-0.739952
-1.16785
-0.995438
-0.978896
-1.14433
-0.786592
-1.15824
-1.06745
-1.03613
-0.977276
-1.34006
-0.969132
-0.962129
-0.903125
-1.07004
-1.08018
-0.850669
-0.962615
-1.07128
-1.07934
-0.988933
-0.968236
-1.33223
-0.981511
-1.03911
-1.04528
-1.0479
-1.03963
-0.977367
-1.06993
-0.944577
-0.942339
-1.09579
-0.74629
-0.730567
-0.799662
-1.142
-0.784574
-0.773474
-0.786897
-1.14874
-0.785526
-0.776964
-0.780003
-1.14367
-0.801209
-0.869393
-1.43792
-1.05847
-0.992676
-0.866633
-0.861606
-1.15572
-0.982616
-1.00378
-0.999585
-1.00037
-1.00024
-0.999375
-0.997492
-0.999963
-1.01908
-1.03455
-0.912003
-1.12958
-1.13046
-0.913874
-1.13052
-1.13074
-1.20954
-1.20751
-1.21087
-1.20687
-0.758849
-1.12565
-0.784378
-1.12794
-0.758484
-1.1266
-0.784571
-1.12712
-0.895889
-0.85897
-1.02991
-0.908703
-1.02972
-1.16076
-0.933146
-1.12971
-0.942751
-1.1324
-1.13135
-0.933617
-1.12788
-0.945481
-1.13175
-0.934194
-1.12759
-0.943366
-1.13728
-1.13827
-0.93772
-1.11338
-0.931046
-1.10934
-1.11171
-0.939068
-1.13677
-1.13761
-1.10824
-0.930591
-0.981808
-0.937293
-0.934477
-0.934505
-0.934198
-0.933752
-0.93318
-0.883879
-0.88368
-0.931696
-0.929269
-0.932099
-0.928512
-1.13087
-1.13161
-0.916096
-1.13108
-1.13348
-1.21412
-1.20637
-1.21834
-1.20686
-0.762307
-1.10901
-0.785254
-1.1347
-0.760052
-1.12228
-0.784665
-1.13066
-0.89571
-0.858147
-1.02675
-0.911478
-1.03478
-1.15158
-0.933448
-1.12077
-0.939661
-1.14584
-1.13227
-0.939021
-1.11604
-0.923859
-1.09956
-1.1845
-0.935249
-1.13158
-1.04875
-0.956354
-0.888553
-0.956364
-0.988161
-0.835168
-0.870746
-1.14206
-1.07717
-0.782841
-0.902771
-0.90921
-0.912907
-0.91423
-0.914756
-0.915357
-0.917216
-0.892257
-0.90231
-1.0444
-0.906584
-0.690628
-0.831596
-0.946779
-0.864083
-1.24843
-0.767434
-0.894692
-1.14593
-1.00537
-0.902395
-0.951405
-1.14621
-0.926285
-1.10348
-0.935742
-1.132
-0.940549
-1.12582
-1.12381
-0.930837
-1.13006
-0.913434
-1.13055
-0.992031
-0.977305
-1.13123
-0.975289
-1.13559
-0.986923
-0.985906
-0.9729
-0.975575
-0.935423
-1.01384
-0.98892
-0.932042
-0.987115
-0.827625
-1.01426
-0.896642
-1.148
-0.94027
-1.13633
-0.938938
-1.12698
-1.12795
-0.934485
-1.12973
-0.944139
-1.12786
-0.931639
-1.12923
-0.945055
-1.12944
-1.1291
-0.929987
-1.12971
-0.979066
-0.978569
-1.1301
-0.976838
-0.975822
-0.978766
-0.983178
-1.13775
-0.976718
-1.1666
-0.979703
-0.966201
-1.01077
-0.997583
-0.990491
-0.969616
-1.16187
-0.998731
-0.860586
-1.02964
-0.908552
-1.16127
-0.93344
-1.13058
-0.942265
-1.13039
-1.1312
-0.933152
-1.1288
-0.945829
-1.13048
-0.932415
-1.12912
-0.945375
-1.13209
-1.1327
-0.932823
-1.12754
-0.933348
-1.02411
-1.02419
-1.00565
-1.00054
-0.99965
-0.99774
-1.00021
-0.999104
-1.01816
-1.02238
-1.03817
-0.933451
-0.934085
-0.934565
-1.03964
-1.02439
-1.02373
-1.00522
-1.00362
-1.02363
-1.01941
-0.9411
-1.13469
-0.935527
-1.13379
-1.1251
-0.93259
-1.13041
-1.13097
-1.12458
-1.1248
-0.934604
-1.13045
-1.13273
-1.12813
-1.13731
-0.938223
-1.13358
-1.10763
-1.10428
-1.10521
-1.10672
-0.938149
-1.13625
-1.13429
-0.941097
-1.1243
-0.934565
-1.13212
-1.13086
-0.944545
-1.12758
-0.933529
-1.13163
-1.13012
-1.13001
-1.1305
-0.931822
-1.12839
-1.12806
-0.944537
-1.12787
-0.933534
-1.12977
-1.13225
-1.13052
-0.942091
-1.13215
-1.16144
-0.9346
-1.1271
-0.93953
-1.13649
-1.16245
-0.939962
-1.1158
-1.10518
-1.16556
-0.951183
-1.14723
-0.926806
-1.15701
-0.949817
-1.15556
-0.926765
-1.14858
-0.951107
-1.16414
-1.10607
-1.11475
-0.923974
-0.977857
-0.969823
-0.975007
-0.746643
-1.01027
-0.960345
-0.983676
-0.985341
-0.742652
-0.972281
-0.939037
-0.958666
-1.01144
-0.746502
-1.3926
-1.02552
-0.999196
-0.860924
-1.14404
-0.970865
-0.941301
-0.942941
-0.969181
-0.905098
-1.00345
-1.14586
-0.841869
-1.02539
-1.39218
-0.999829
-1.42191
-1.0203
-0.935872
-0.934653
-0.933186
-0.934251
-1.02486
-0.945758
-1.12949
-0.931794
-1.12978
-1.13052
-1.12925
-1.13272
-0.93334
-1.1295
-1.13127
-0.942973
-1.13077
-1.16199
-0.933307
-1.12928
-1.16148
-0.909171
-1.03037
-1.03014
-0.860087
-1.0307
-1.03072
-0.8607
-1.03042
-1.03242
-0.859233
-1.02772
-1.03574
-0.856059
-1.00966
-0.969532
-0.997475
-0.970693
-0.999758
-0.970564
-0.999656
-0.970051
-0.999446
-0.969611
-0.999407
-0.861275
-1.0256
-1.1627
-0.908562
-1.03382
-1.01169
-0.848311
-0.998012
-0.969935
-0.966251
-1.01464
-0.897252
-1.19614
-0.956761
-1.14627
-0.924068
-0.977811
-0.978381
-0.989156
-0.768179
-0.896349
-1.24795
-0.690767
-0.947644
-0.827801
-0.986804
-0.93212
-0.831973
-0.864366
-1.00479
-0.903918
-1.14587
-0.935491
-0.974722
-0.969903
-0.982703
-0.989098
-0.982409
-0.979918
-0.979257
-0.933043
-1.12994
-1.1635
-1.16111
-1.13074
-0.986554
-0.985566
-0.984712
-0.979019
-0.975938
-0.97303
-0.972136
-0.987405
-0.943506
-1.13132
-0.933803
-1.1281
-1.13392
-1.12773
-1.16805
-0.933191
-1.13284
-1.15945
-0.910407
-0.758854
-0.994183
-0.981124
-0.984807
-0.998719
-1.1339
-1.21463
-1.20642
-0.785773
-0.883747
-0.884169
-0.785117
-0.932271
-0.927983
-1.13164
-0.931822
-0.927434
-1.13138
-0.917349
-1.03966
-0.93488
-0.934804
-1.03639
-1.02046
-1.02413
-1.00505
-1.00572
-1.02536
-1.00066
-1.00373
-1.0006
-1.00053
-1.02497
-1.02394
-1.02264
-1.00359
-1.02323
-1.03806
-1.03891
-0.914797
-0.993485
-0.992406
-0.978272
-0.980178
-0.985904
-0.976992
-0.975674
-0.969381
-0.981942
-0.930325
-0.992011
-0.98298
-0.980695
-0.983356
-0.985925
-0.991401
-0.98928
-0.986754
-1.00012
-0.995766
-1.13039
-1.13479
-0.917145
-1.13001
-1.00612
-0.990858
-0.985994
-0.990949
-0.891574
-0.950098
-1.21057
-1.24745
-0.745347
-0.997094
-1.36288
-1.01695
-0.849467
-1.00203
-1.01311
-0.866017
-0.868459
-1.4507
-1.03698
-1.00471
-1.27778
-1.10236
-1.10379
-1.04452
-1.06674
-0.790013
-1.16021
-0.980423
-1.00205
-0.99922
-1.02513
-1.02562
-1.02452
-0.934529
-0.932249
-0.927775
-0.931738
-0.92715
-0.88347
-0.883898
-0.883798
-1.16292
-1.15904
-0.933259
-1.12756
-0.942621
-1.13663
-1.13067
-0.934948
-1.12511
-0.94303
-1.12854
-0.934657
-0.934603
-1.0249
-1.03941
-1.03941
-0.917815
-1.02419
-1.00497
-1.00564
-1.00516
-1.02443
-0.933703
-0.932702
-0.93425
-1.13567
-0.976308
-1.12483
-0.970346
-1.10801
-1.1583
-0.938784
-0.971818
-0.986714
-0.735796
-0.977098
-0.976115
-0.978721
-0.983937
-1.13281
-0.983588
-0.969185
-1.02919
-0.998713
-0.981035
-0.969553
-1.16144
-0.998875
-0.859674
-1.0295
-0.909607
-1.0314
-0.970008
-0.998953
-0.980893
-0.980371
-0.98485
-1.13216
-0.980209
-1.13052
-0.974982
-0.985653
-1.1325
-0.980788
-1.13037
-0.97587
-0.986369
-1.13353
-0.970165
-1.16745
-0.996727
-0.855016
-1.00875
-0.912787
-1.17971
-0.969141
-0.982791
-0.988457
-0.975839
-0.951147
-0.892949
-0.938021
-0.920705
-0.977967
-0.986659
-1.13411
-0.978886
-0.986728
-0.976012
-0.960767
-0.939548
-0.974519
-0.979234
-0.980438
-1.13241
-1.13017
-0.977572
-0.976211
-0.981259
-0.989767
-0.979885
-0.967195
-0.939613
-0.974043
-0.978192
-0.97887
-1.1293
-0.993266
-0.992726
-0.99228
-0.914736
-0.915259
-0.916942
-0.879157
-0.90683
-0.91526
-0.915704
-0.916892
-0.993928
-0.983893
-0.983456
-0.980191
-0.932815
-0.726507
-0.812981
-0.918791
-0.976011
-0.989723
-0.984822
-0.977273
-0.97352
-0.972002
-0.97259
-0.97542
-0.982301
-0.980933
-0.969913
-0.972572
-0.972602
-0.938892
-1.14404
-0.935068
-0.989547
-0.978095
-0.9887
-0.985129
-0.939562
-1.12657
-1.12873
-0.933538
-1.01941
-0.999086
-0.955517
-1.0183
-1.03471
-0.887124
-0.940498
-1.38449
-1.22669
-0.759656
-0.884225
-1.03829
-1.02363
-1.00358
-1.02247
-1.02366
-1.00514
-1.02486
-0.934179
-0.934689
-0.934843
-0.935159
-1.02507
-0.945921
-1.13058
-0.932521
-1.12911
-1.13341
-0.934245
-1.12665
-1.12927
-1.13116
-1.13331
-0.935029
-1.12487
-1.13466
-1.1304
-0.9434
-1.13717
-1.15199
-0.912331
-0.760113
-0.988101
-0.979769
-0.981633
-0.987111
-0.988596
-0.956419
-0.95102
-0.892986
-0.974526
-0.938059
-0.920371
-0.978916
-0.988205
-0.975943
-0.973
-0.98338
-0.983789
-1.13106
-1.13033
-1.13136
-1.13044
-0.934463
-1.13168
-1.12972
-0.94606
-1.13206
-0.936526
-1.13023
-1.12835
-0.943892
-1.1364
-1.14119
-1.13847
-0.941948
-1.03777
-1.02256
-0.999848
-1.0023
-1.00068
-1.00196
-0.932727
-0.92577
-1.12152
-0.798559
-0.73357
-1.15842
-1.06601
-1.06702
-0.977666
-1.04073
-1.04835
-1.06551
-0.777276
-1.14859
-0.957398
-1.15065
-1.15666
-1.15082
-1.15022
-1.12066
-0.891981
-1.04557
-1.33284
-0.754301
-0.985521
-1.11724
-1.03898
-1.10286
-1.02654
-0.992902
-1.29393
-1.08688
-0.805012
-0.871451
-1.44411
-0.863901
-1.15442
-0.802066
-1.15682
-0.958912
-1.00539
-1.00128
-1.02048
-1.02071
-1.03616
-1.02148
-1.02464
-1.02147
-1.00202
-1.00516
-1.02529
-1.02538
-1.03966
-0.93516
-0.935658
-0.935128
-1.02183
-0.937483
-0.883344
-0.783298
-1.20762
-0.77384
-0.990366
-1.10798
-0.939506
-0.984507
-0.988109
-1.12045
-0.79507
-0.730139
-1.16037
-0.980355
-0.958972
-1.15015
-0.773256
-1.15059
-1.06597
-1.0662
-1.06894
-0.946238
-1.04522
-1.332
-0.985366
-1.03926
-1.0447
-1.04604
-1.04984
-1.06588
-0.782061
-1.15057
-1.0831
-1.0466
-1.08133
-1.06652
-0.778253
-1.15262
-0.960503
-1.15685
-1.15622
-1.02732
-0.937381
-0.937945
-1.02758
-1.02292
-0.88974
-0.939761
-0.938243
-0.982045
-1.02256
-1.02675
-1.02878
-0.944545
-1.19746
-0.96384
-0.971055
-0.983559
-0.980517
-0.979193
-0.979594
-0.98197
-0.986046
-1.13085
-1.12907
-0.942185
-0.884276
-1.03913
-0.942972
-1.13029
-1.13189
-0.933552
-1.13177
-1.12991
-1.12916
-0.945756
-1.12995
-0.983297
-0.97166
-0.97446
-0.981604
-0.981758
-0.979175
-0.983184
-0.970903
-0.97228
-0.975932
-0.981882
-1.13881
-1.13523
-1.13926
-0.9821
-0.983398
-0.983833
-0.946248
-0.987312
-1.13295
-1.13168
-0.943419
-0.885169
-0.884437
-1.03996
-0.943575
-1.13374
-1.135
-0.987425
-0.970859
-0.970385
-0.969972
-0.969653
-0.969841
-0.965949
-0.931893
-0.986944
-0.998326
-1.00012
-0.999605
-0.986853
-1.00043
-1.0006
-1.00178
-0.987371
-0.980604
-0.927484
-0.977109
-0.98356
-0.983456
-0.972847
-0.959407
-0.938957
-0.976391
-0.973246
-0.959321
-0.942314
-0.972508
-0.97155
-0.937968
-0.967317
-0.88603
-0.943364
-1.13145
-0.940323
-0.998876
-0.979136
-1.15429
-1.08389
-1.08675
-1.117
-1.02622
-1.10249
-1.10378
-1.1023
-1.0842
-1.04393
-1.09937
-1.29259
-1.1023
-1.10485
-1.18408
-1.15455
-1.29918
-1.30038
-1.28018
-1.29642
-1.29434
-0.954299
-0.958078
-1.00136
-1.16195
-0.818985
-0.954237
-0.98552
-0.946243
-0.924327
-1.1373
-0.934269
-1.13035
-0.90642
-0.884953
-0.909574
-0.881995
-0.893682
-0.896909
-1.16089
-1.12756
-1.13128
-0.979617
-1.29444
-1.13479
-0.991746
-0.758418
-0.90942
-0.73109
-1.14786
-0.760234
-0.759887
-0.75869
-0.897856
-0.860389
-0.930624
-0.899628
-0.958979
-0.95085
-0.754428
-0.92896
-1.14588
-0.786999
-1.05895
-0.751258
-1.10918
-0.930353
-0.950978
-0.878541
-0.850239
-0.738426
-0.928921
-0.930083
-0.932825
-0.7853
-0.933337
-1.13273
-0.931511
0.987467
0.975889
0.986895
0.980206
0.974299
0.972067
0.971929
0.973694
0.977533
0.985081
0.972335
0.967562
0.72063
1.01623
1.15173
0.904922
1.00575
0.95474
1.19562
0.894671
1.14733
1.00944
0.846784
1.03433
1.0257
0.861465
1.03284
1.02895
0.862222
1.03184
1.02916
0.857799
1.03162
1.02794
0.858886
1.02833
1.02975
0.857609
1.02277
1.0337
0.847293
1.00748
1.01461
0.826306
0.944775
0.689395
1.2454
0.76801
0.895917
1.00903
0.747369
0.958206
0.986251
0.744488
0.978845
0.976998
0.750033
0.989763
0.948682
0.743607
0.979581
1.17651
0.815888
1.09344
1.03043
0.949227
0.953945
1.13068
0.945086
0.94989
0.949763
1.14003
0.951638
0.948295
0.933009
1.14141
0.969617
0.949459
0.900329
1.14377
1.00126
0.955116
0.862213
0.829029
0.727985
0.904423
1.0659
1.10788
1.11788
1.12442
1.12238
1.12429
1.12459
1.12416
1.12645
1.12603
1.12697
1.12685
1.12799
1.12586
1.12692
1.11918
1.10268
1.0484
0.860962
0.977286
0.9969
1.02786
0.955992
0.720818
1.29044
0.997726
1.05658
0.993766
1.03164
1.15458
1.1827
1.10049
1.04936
1.05359
1.04993
1.10037
1.29065
1.05652
0.846078
0.856886
0.956756
0.869379
0.846541
1.01032
1.30109
1.03156
1.37492
0.993643
1.15458
0.9771
0.996962
1.05018
1.22641
1.20057
0.902611
1.16864
0.890181
1.1214
1.02845
0.720204
0.955063
0.987303
1.15288
1.11361
1.13865
1.12843
1.13325
1.13009
1.13175
1.12935
1.13215
1.12712
1.13389
1.12403
1.13472
1.12153
1.11914
0.967632
1.40364
0.983428
0.964294
1.10701
1.12828
0.944458
1.13011
1.12763
0.94771
1.13245
1.12835
0.947613
1.13331
1.12841
0.947266
1.13403
1.1285
0.946614
1.13435
1.12804
0.944224
1.13817
1.11078
0.931292
1.1629
0.94202
1.14903
0.984589
0.70961
0.99119
0.94649
1.1515
0.961085
0.719364
1.02012
0.90466
1.17206
1.11048
1.13986
1.13538
1.13117
1.14129
1.12535
1.14371
1.12901
1.12786
1.13403
1.12473
1.13634
1.11453
1.12826
0.974471
1.40826
1.01193
0.955905
1.06835
1.22558
0.913009
1.2092
1.20639
0.914274
1.20818
1.20702
0.91431
1.22416
1.10105
0.945355
1.1559
1.11702
0.944885
1.14391
1.12583
0.942492
1.14179
1.11848
0.927162
1.14765
1.00804
1.1517
0.900033
0.732653
1.22643
0.851534
1.19385
1.15091
0.895215
1.01204
0.934013
0.813902
0.677146
0.863132
0.727061
1.04981
1.10662
0.760013
1.20179
1.11212
0.901739
1.22575
1.16943
0.88977
1.12119
1.05144
0.786487
0.944079
1.37564
0.99343
1.15448
1.0317
1.30113
1.01063
0.846904
0.956993
0.869372
0.805077
1.15907
0.856845
0.867622
0.800371
0.797554
1.15599
0.862476
0.861939
0.796757
0.800538
1.15592
0.868147
0.856452
0.803703
0.869693
1.1588
0.956759
0.846289
1.03184
1.01026
1.30161
1.03176
1.1545
0.992655
1.05689
1.28806
1.00116
1.02697
1.27637
1.02626
1.00191
1.28767
1.0565
0.846399
1.09604
1.18198
1.10044
1.43836
1.02717
0.950743
0.988617
0.94437
1.16396
1.11143
1.11127
1.11453
0.931153
1.16443
1.15218
0.989517
1.14958
0.943059
0.954966
1.02931
1.45134
1.10418
1.10049
1.43796
1.02716
0.950677
0.888444
1.0517
1.22602
1.20113
0.759941
1.10358
0.786986
1.04805
0.727401
0.995814
1.12127
1.03202
0.950687
0.988579
0.987509
1.14949
0.951627
1.031
0.996121
0.976202
0.866923
0.891782
0.842961
0.813008
0.978476
0.917762
0.970639
0.978058
0.992016
0.998854
0.856162
1.00514
1.03464
1.16115
1.17197
1.15012
1.18793
0.905125
1.04903
1.02698
0.90872
0.760889
1.12497
1.13666
0.757452
1.2085
1.13343
0.913325
1.20835
1.1315
1.13297
0.913009
1.2112
0.786956
0.886544
0.889563
0.942131
0.789475
1.12711
0.891777
1.1147
0.921439
0.921811
0.892737
0.858226
1.00364
0.972509
0.963833
0.978942
0.977136
0.969489
0.935744
0.941754
0.976795
0.955347
1.15297
1.16417
1.11054
0.931688
1.11298
0.941995
1.13876
1.13903
1.12997
0.944769
1.1265
0.937139
1.13672
1.13254
1.13259
0.947385
1.12523
0.93456
1.13753
1.13075
1.13185
0.948155
1.12606
0.9312
1.13481
1.13185
1.12827
0.947877
1.12755
0.926857
1.13206
1.13372
1.12412
0.947341
1.12663
0.924647
1.12926
1.13477
1.12128
0.944177
1.12819
0.921913
1.10587
1.11686
0.977279
0.964451
0.982173
0.797669
0.830322
0.80085
0.831231
0.903401
1.40745
0.960528
0.881512
1.15196
0.881871
1.08432
0.763576
1.09946
1.13072
0.756073
1.12488
1.13341
0.764347
1.07863
1.28493