/*--------------------------------*- C++ -*----------------------------------*\
| =========                 |                                                 |
| \\      /  F ield         | OpenFOAM: The Open Source CFD Toolbox           |
|  \\    /   O peration     | Version:  2306                                  |
|   \\  /    A nd           | Website:  www.openfoam.com                      |
|    \\/     M anipulation  |                                                 |
\*---------------------------------------------------------------------------*/
FoamFile
{
    version     2.0;
    format      ascii;
    arch        "LSB;label=32;scalar=64";
    class       volScalarField;
    location    "100";
    object      epsilon;
}
// * * * * * * * * * * * * * * * * * * * * * * * * * * * * * * * * * * * * * //

dimensions      [0 2 -3 0 0 0 0];

internalField   nonuniform List<scalar> 
12225
(
1085.65
2467.83
3645.44
4414.89
4812.33
4981.02
4972.86
4933.27
4839.04
4730.12
4622.6
4519.93
4428.65
4343.71
4273.58
4204.71
4157.41
4095.11
81.2229
262.585
438.467
584.48
690.992
762.735
804.511
829.62
846.419
856.287
865.955
872.878
881.95
889.637
898.954
907.764
916.257
929
20.5684
51.1901
83.4463
112.539
136.89
156.164
170.1
179.822
186.294
190.662
193.35
195.435
196.647
198.1
198.974
200.583
200.797
205.628
14.7547
21.8688
30.0148
38.504
46.2079
53.0298
58.6085
63.241
66.7319
69.6079
71.5742
73.2728
74.263
75.2448
75.6655
76.2511
76.1684
77.3977
14.3603
16.333
18.4542
21.488
24.4362
27.259
29.732
31.9754
33.8103
35.4654
36.7306
37.9052
38.7228
39.5407
40.0254
40.5998
40.7936
41.397
14.6445
14.9538
15.4268
16.4563
17.608
18.8276
19.968
21.0737
22.03
22.9424
23.6831
24.4062
24.946
25.5127
25.8769
26.3299
26.5266
26.9681
14.7183
14.6386
14.6736
14.8756
15.2173
15.6828
16.1621
16.6711
17.1366
17.6083
18.0073
18.4164
18.7334
19.081
19.3135
19.6129
19.755
20.0639
14.7545
14.5907
14.4691
14.4209
14.4417
14.5151
14.6474
14.8241
15.0016
15.2012
15.3779
15.5741
15.7303
15.9117
16.0363
16.2026
16.2857
16.4683
14.7641
14.5919
14.4345
14.3029
14.2031
14.1371
14.0973
14.0987
14.1106
14.1412
14.1779
14.234
14.2785
14.3414
14.3837
14.4477
14.4792
14.5588
14.7656
14.5942
14.432
14.2829
14.1466
14.0296
13.9257
13.8438
13.7745
13.7225
13.6772
13.6482
13.6203
13.6061
13.5889
13.5832
13.5714
13.5808
14.7657
14.5945
14.4323
14.2806
14.137
14.0052
13.8817
13.7707
13.6681
13.578
13.4941
13.4222
13.354
13.2974
13.2409
13.1975
13.1475
13.1179
14.7657
14.5943
14.4322
14.2801
14.1358
14.0008
13.8729
13.7541
13.6419
13.5388
13.4413
13.3527
13.2681
13.1927
13.119
13.0555
12.9901
12.9374
14.7657
14.5941
14.4321
14.2797
14.1353
13.9995
13.8708
13.7498
13.6349
13.5274
13.4251
13.3298
13.2388
13.1547
13.0737
12.9996
12.9273
12.8622
14.7657
14.594
14.4319
14.2792
14.1349
13.9988
13.8699
13.7482
13.6328
13.5239
13.4203
13.3227
13.2297
13.1422
13.0586
12.9801
12.9048
12.8343
14.7657
14.5938
14.4317
14.2789
14.1345
13.9981
13.8692
13.7472
13.6317
13.5223
13.4185
13.3202
13.2268
13.1382
13.054
12.9741
12.8979
12.8257
14.7657
14.5937
14.4316
14.2786
14.1341
13.9976
13.8685
13.7464
13.6307
13.5212
13.4172
13.3187
13.2251
13.1363
13.0518
12.9715
12.8951
12.8225
14.7657
14.5937
14.4315
14.2784
14.1338
13.9972
13.868
13.7458
13.63
13.5203
13.4162
13.3175
13.2238
13.1348
13.0502
12.9698
12.8932
12.8204
14.7657
14.5937
14.4314
14.2783
14.1336
13.9969
13.8677
13.7453
13.6294
13.5196
13.4155
13.3167
13.2228
13.1337
13.049
12.9685
12.8918
12.8189
14.7657
14.5937
14.4314
14.2782
14.1336
13.9968
13.8675
13.7451
13.6292
13.5193
13.4151
13.3162
13.2224
13.1332
13.0484
12.9678
12.8911
12.8182
14.7657
14.5937
14.4315
14.2783
14.1337
13.997
13.8677
13.7453
13.6294
13.5195
13.4153
13.3164
13.2226
13.1334
13.0487
12.9681
12.8915
12.8185
14.7657
14.5937
14.4316
14.2785
14.1339
13.9972
13.868
13.7457
13.6299
13.5201
13.4161
13.3174
13.2239
13.135
13.0507
12.9705
12.8945
12.8221
14.7657
14.5938
14.4317
14.2786
14.1343
13.9977
13.869
13.7472
13.6324
13.5239
13.4217
13.325
13.2342
13.148
13.0673
12.9904
12.9189
12.8501
14.7657
14.5937
14.4319
14.2789
14.1361
14.002
13.8781
13.7628
13.6572
13.5594
13.4705
13.3881
13.3139
13.2445
13.1827
13.1236
13.0728
13.0212
14.7644
14.5922
14.4335
14.287
14.1628
14.0551
13.9689
13.8978
13.8459
13.8049
13.7784
13.7583
13.7484
13.7419
13.7419
13.7462
13.7524
13.7521
14.7478
14.5944
14.4764
14.4102
14.4235
14.4614
14.5556
14.6709
14.8174
14.9619
15.1247
15.2723
15.4334
15.5701
15.7217
15.8397
15.9808
16.075
14.6504
14.7821
14.9371
15.3415
15.9232
16.5512
17.2349
17.8792
18.5397
19.124
19.716
20.2133
20.7247
21.1301
21.5649
21.8823
22.2528
22.4886
14.5722
16.1273
17.9733
20.4195
22.9256
25.267
27.551
29.5569
31.498
33.1106
34.6969
35.9259
37.1911
38.0819
39.0803
39.6925
40.4836
40.8754
16.5453
25.878
36.7244
46.5548
55.8745
64.2799
72.1193
78.7586
84.8321
89.6214
94.0568
97.2198
100.371
102.248
104.522
105.486
107.215
107.571
45.7989
105.207
164.46
217.249
267.899
313.504
353.763
386.207
413.377
433.81
450.801
462.914
473.147
480.041
487.125
490.631
496.514
497.867
632.352
1081.15
1534.76
1880.96
2183.46
2431.63
2631.39
2772.68
2875.78
2931.54
2968.41
2969.1
2961.98
2944.84
2916.75
2883.27
2847.31
2809.77
1.39835
1.92569
3.52213
5.10409
6.52979
7.7641
8.80597
9.68966
10.5463
11.3395
12.1132
12.9267
13.8569
14.9748
16.3819
18.149
20.2805
22.7527
25.5859
28.7989
32.4461
36.5733
41.2773
46.58
52.5109
59.0856
66.3494
74.2802
82.8873
92.1322
102.004
112.442
123.428
134.888
146.802
159.092
171.743
184.684
197.905
211.345
225.002
238.822
252.812
266.924
281.173
295.517
309.975
324.513
339.156
353.875
368.693
383.58
398.558
413.597
428.716
443.888
459.128
474.41
489.743
505.103
520.495
535.898
551.306
566.707
582.084
597.43
612.72
627.953
643.09
658.135
673.038
687.815
702.412
716.861
731.099
745.167
758.996
772.642
786.037
799.254
812.217
825.022
837.591
850.021
862.186
874.185
885.965
897.586
908.986
920.256
931.323
942.186
952.851
963.384
973.962
984.826
996.117
1006.28
1016.22
1024.7
1033.23
1040.69
1048.43
1052.43
1052.11
1067.22
1070.27
1071.49
1083.61
1080.52
1091.77
1092.86
1094.94
1092.87
1097.41
1092.68
1093.62
1093.66
1094.81
1097.03
1091.21
1086.28
1079.82
1072.47
1064.04
1054.63
1044.19
1032.82
1020.48
1007.18
992.834
977.56
961.342
944.256
926.326
907.64
888.117
867.774
846.751
825.105
803.003
780.501
757.634
734.527
711.122
687.579
664.545
640.867
618.538
603.172
589.566
576.035
562.401
548.717
535.034
521.405
507.926
494.455
481.011
467.849
455.068
442.799
430.544
418.52
406.866
395.67
384.915
374.57
364.651
355.169
346.105
337.436
329.156
321.172
313.593
305.817
299.038
289.688
283.287
259.737
6.84467
4.25662
4.06254
4.32742
4.77694
5.30441
5.88467
6.52145
7.22626
7.99907
8.8551
9.82047
10.9287
12.214
13.7088
15.4351
17.4022
19.612
22.0676
24.7722
27.7319
30.9504
34.4317
38.1692
42.1556
46.3797
50.8318
55.4989
60.3593
65.3829
70.5532
75.8508
81.263
86.7737
92.374
98.052
103.803
109.617
115.492
121.422
127.405
133.437
139.519
145.645
151.82
158.039
164.306
170.621
176.993
183.412
189.87
196.363
202.892
209.452
216.041
222.656
229.294
235.949
242.62
249.301
255.987
262.673
269.354
276.023
282.675
289.303
295.9
302.46
308.973
315.435
321.835
328.166
334.419
340.592
346.676
352.669
358.561
364.357
370.047
375.636
381.115
386.494
391.76
396.92
401.96
406.89
411.703
416.406
420.994
425.478
429.844
434.095
438.236
442.285
446.258
450.144
453.862
457.255
460.414
463.23
465.844
468.115
470.115
471.432
472.061
476.55
477.8
478.967
481.437
481.864
483.483
483.647
483.164
483.357
483.703
483.276
483.209
483.05
482.861
483.013
480.935
478.982
476.578
473.86
470.793
467.39
463.648
459.576
455.17
450.426
445.329
439.907
434.117
427.973
421.482
414.658
407.498
400.006
392.216
384.144
375.825
367.283
358.534
349.611
340.517
331.278
322.018
312.599
303.218
294.999
287.267
279.653
272.062
264.501
256.994
249.562
242.245
235.021
227.803
220.647
213.656
206.868
200.221
193.738
187.45
181.395
175.579
169.997
164.654
159.554
154.694
150.066
145.677
141.493
137.585
133.746
130.49
126.774
125.097
124.854
14.0413
7.20528
6.06476
5.92072
6.11642
6.49205
6.99031
7.59476
8.30825
9.14016
10.1058
11.2243
12.5161
13.9994
15.6876
17.5875
19.6992
22.0177
24.5365
27.2486
30.1475
33.2263
36.4782
39.8946
43.4679
47.192
51.0465
54.9798
58.9876
63.088
67.2814
71.562
75.9227
80.3563
84.858
89.4249
94.0568
98.7471
103.492
108.289
113.137
118.032
122.974
127.962
132.994
138.069
143.187
148.348
153.55
158.79
164.067
169.378
174.722
180.096
185.498
190.927
196.379
201.852
207.342
212.846
218.361
223.881
229.403
234.922
240.433
245.929
251.406
256.857
262.275
267.654
272.988
278.268
283.489
288.644
293.727
298.732
303.653
308.486
313.225
317.866
322.405
326.838
331.16
335.367
339.455
343.422
347.267
350.989
354.587
358.064
361.417
364.646
367.751
370.734
373.587
376.296
378.83
381.167
383.32
385.283
387.078
388.689
390.127
391.397
392.667
394.4
395.413
396.371
397.367
397.887
398.432
398.624
398.54
398.305
398.177
397.725
397.314
396.77
396.073
395.195
393.678
392.006
390.072
387.892
385.459
382.769
379.82
376.607
373.127
369.373
365.338
361.025
356.424
351.539
346.375
340.936
335.229
329.261
323.048
316.605
309.95
303.098
296.066
288.867
281.51
274.025
266.458
258.818
251.222
244
237.026
230.164
223.364
216.626
209.964
203.396
196.943
190.606
184.369
178.246
172.277
166.405
160.674
155.096
149.674
144.443
139.407
134.569
129.935
125.507
121.285
117.268
113.458
109.843
106.457
103.226
100.365
97.5725
95.5425
94.974
21.818
10.259
8.31625
7.87616
7.93232
8.24582
8.73355
9.36657
10.1395
11.0583
12.1352
13.3845
14.8195
16.4499
18.2798
20.3073
22.5255
24.9238
27.4908
30.2148
33.0859
36.0947
39.2331
42.4924
45.8635
49.3343
52.9003
56.5729
60.3535
64.2286
68.1937
72.2479
76.38
80.5805
84.8411
89.1501
93.526
97.9651
102.466
107.025
111.642
116.314
121.04
125.817
130.644
135.521
140.445
145.416
150.431
155.489
160.588
165.727
170.904
176.118
181.366
186.647
191.959
197.299
202.663
208.051
213.457
218.878
224.31
229.748
235.188
240.624
246.049
251.459
256.845
262.202
267.522
272.797
278.02
283.183
288.279
293.301
298.241
303.091
307.844
312.495
317.035
321.458
325.758
329.928
333.964
337.861
341.617
345.228
348.693
352.013
355.187
358.214
361.092
363.819
366.39
368.795
371.024
373.074
374.952
376.664
378.222
379.628
380.894
382.039
383.123
384.178
384.984
385.677
386.255
386.546
386.648
386.531
386.126
385.756
385.271
384.629
383.862
382.932
381.822
380.491
378.85
377.006
374.936
372.64
370.11
367.341
364.328
361.066
357.551
353.776
349.738
345.435
340.865
336.029
330.931
325.577
319.973
314.128
308.056
301.768
295.28
288.606
281.758
274.747
267.574
260.304
252.973
245.617
238.307
231.167
224.177
217.291
210.488
203.769
197.149
190.642
184.264
178.024
171.92
165.964
160.171
154.532
149.056
143.735
138.544
133.529
128.686
124.027
119.555
115.277
111.193
107.302
103.61
100.112
96.827
93.7304
90.9235
88.3352
86.2125
85.1175
29.6548
13.4907
10.7184
9.99888
9.93715
10.2066
10.6947
11.3569
12.1792
13.162
14.3123
15.6396
17.1521
18.8545
20.7469
22.8241
25.0771
27.4943
30.0635
32.7733
35.614
38.5772
41.6566
44.8465
48.1423
51.5402
55.0386
58.6382
62.3377
66.1323
70.0173
73.9863
78.0394
82.175
86.3918
90.6902
95.0673
99.5193
104.044
108.638
113.3
118.028
122.82
127.673
132.587
137.559
142.588
147.671
152.809
157.998
163.238
168.527
173.864
179.247
184.674
190.145
195.656
201.206
206.793
212.413
218.064
223.742
229.442
235.161
240.893
246.633
252.373
258.109
263.832
269.534
275.208
280.844
286.434
291.969
297.439
302.835
308.148
313.367
318.483
323.487
328.369
333.121
337.734
342.199
346.51
350.661
354.646
358.462
362.106
365.576
368.873
371.995
374.939
377.704
380.287
382.681
384.886
386.903
388.738
390.399
391.894
393.228
394.405
395.436
396.333
397.097
397.682
398.092
398.25
398.146
397.952
397.576
397.032
396.356
395.526
394.528
393.359
392.005
390.453
388.684
386.677
384.456
382.011
379.339
376.434
373.29
369.903
366.268
362.381
358.237
353.834
349.172
344.249
339.069
333.635
327.952
322.03
315.876
309.504
302.925
296.154
289.205
282.093
274.837
267.448
259.997
252.507
245.015
237.571
230.235
223.012
215.89
208.864
201.941
195.133
188.455
181.921
175.542
169.322
163.272
157.4
151.707
146.197
140.867
135.707
130.73
125.9
121.246
116.771
112.481
108.378
104.464
100.746
97.2234
93.91
90.7968
87.9442
85.3535
83.1373
81.6057
37.0884
16.6776
13.1377
12.1607
11.9967
12.2277
12.7149
13.3978
14.2535
15.2757
16.4666
17.8311
19.3738
21.097
22.9992
25.0752
27.3167
29.7136
32.2555
34.9326
37.7368
40.6616
43.702
46.8546
50.1168
53.487
56.9644
60.5483
64.2376
68.0305
71.9245
75.9175
80.0082
84.1954
88.478
92.8546
97.3232
101.881
106.526
111.256
116.069
120.961
125.931
130.977
136.097
141.288
146.549
151.878
157.273
162.733
168.256
173.842
179.488
185.193
190.957
196.777
202.651
208.579
214.557
220.584
226.656
232.77
238.922
245.106
251.319
257.554
263.803
270.061
276.317
282.565
288.794
294.995
301.155
307.266
313.314
319.289
325.177
330.968
336.649
342.208
347.633
352.912
358.033
362.987
367.765
372.356
376.756
380.957
384.955
388.748
392.334
395.71
398.875
401.827
404.564
407.085
409.39
411.482
413.367
415.051
416.541
417.842
418.957
419.89
420.646
421.223
421.558
421.639
421.462
421.152
420.675
420.01
419.158
418.125
416.903
415.487
413.869
412.044
410.003
407.738
405.242
402.518
399.562
396.369
392.934
389.253
385.322
381.139
376.699
372.002
367.046
361.832
356.361
350.637
344.664
338.449
332.001
325.33
318.448
311.368
304.107
296.684
289.12
281.439
273.668
265.845
258.005
250.18
242.408
234.726
227.146
219.672
212.308
205.063
197.951
190.986
184.181
177.547
171.094
164.829
158.76
152.89
147.221
141.751
136.478
131.402
126.51
121.797
117.251
112.881
108.692
104.691
100.885
97.2785
93.8823
90.6979
87.7647
85.1032
82.7803
80.9105
43.9865
19.7383
15.4931
14.2757
14.016
14.2083
14.6893
15.3829
16.2567
17.2986
18.5056
19.8793
21.4218
23.134
25.0147
27.0597
29.2629
31.6167
34.1134
36.7453
39.5063
42.3915
45.3973
48.5214
51.7624
55.1196
58.5926
62.1812
65.8851
69.7037
73.6362
77.6816
81.8393
86.1083
90.4877
94.9762
99.5722
104.274
109.079
113.985
118.99
124.092
129.288
134.576
139.954
145.42
150.971
156.606
162.324
168.122
173.999
179.955
185.987
192.095
198.278
204.534
210.862
217.26
223.728
230.261
236.858
243.515
250.228
256.992
263.803
270.653
277.535
284.441
291.362
298.289
305.209
312.111
318.983
325.812
332.583
339.283
345.896
352.407
358.802
365.065
371.181
377.135
382.913
388.503
393.891
399.066
404.019
408.742
413.229
417.473
421.473
425.224
428.726
431.975
434.972
437.716
440.208
442.453
444.454
446.217
447.749
449.054
450.136
451
451.647
451.986
452.038
451.888
451.52
450.944
450.159
449.156
447.933
446.49
444.823
442.929
440.803
438.442
435.842
432.998
429.909
426.573
422.987
419.149
415.056
410.705
406.095
401.224
396.093
390.7
385.049
379.141
372.98
366.57
359.919
353.034
345.926
338.604
331.086
323.387
315.528
307.532
299.424
291.229
282.975
274.693
266.415
258.17
249.989
241.899
233.914
226.045
218.3
210.691
203.231
195.935
188.815
181.882
175.147
168.617
162.298
156.196
150.311
144.643
139.19
133.95
128.916
124.082
119.438
114.958
110.651
106.53
102.605
98.8839
95.3767
92.0915
89.052
86.2834
83.8323
81.6901
51.1531
22.7865
17.7743
16.2944
15.9286
16.0745
16.5409
17.2352
18.1155
19.1633
20.3712
21.7376
23.2629
24.9475
26.7905
28.7896
30.941
33.2398
35.6808
38.2589
40.9698
43.8102
46.7777
49.8708
53.089
56.4322
59.9006
63.4946
67.2148
71.0614
75.0345
79.1343
83.3608
87.7135
92.1921
96.7956
101.523
106.373
111.344
116.434
121.641
126.963
132.397
137.943
143.596
149.356
155.22
161.186
167.254
173.421
179.686
186.049
192.508
199.063
205.712
212.454
219.29
226.217
233.233
240.338
247.527
254.799
262.149
269.572
277.062
284.614
292.218
299.867
307.55
315.255
322.97
330.682
338.375
346.035
353.644
361.186
368.643
375.995
383.226
390.316
397.247
404
410.558
416.904
423.023
428.901
434.524
439.882
444.966
449.769
454.286
458.511
462.442
466.078
469.416
472.458
475.206
477.662
479.831
481.718
483.329
484.667
485.741
486.557
487.062
487.217
487.081
486.719
486.104
485.236
484.113
482.732
481.092
479.189
477.023
474.591
471.892
468.925
465.687
462.177
458.396
454.344
450.019
445.421
440.55
435.406
429.992
424.307
418.356
412.142
405.669
398.942
391.969
384.755
377.312
369.647
361.776
353.712
345.475
337.085
328.567
319.944
311.243
302.488
293.707
284.927
276.174
267.475
258.856
250.337
241.937
233.666
225.534
217.555
209.741
202.105
194.661
187.42
180.39
173.58
166.996
160.642
154.521
148.631
142.972
137.539
132.329
127.334
122.547
117.949
113.511
109.256
105.198
101.348
97.7164
94.3134
91.1554
88.2646
85.6743
83.3057
59.6729
25.9529
19.9822
18.1818
17.686
17.7717
18.2137
18.9002
19.7789
20.8245
22.0256
23.3774
24.8788
26.5295
28.3295
30.2778
32.3726
34.6116
36.9918
39.5104
42.1651
44.9538
47.8756
50.9298
54.1166
57.4365
60.8907
64.48
68.2059
72.0694
76.0716
80.2134
84.4955
88.9185
93.4826
98.1877
103.033
108.019
113.144
118.406
123.805
129.338
135.004
140.801
146.727
152.78
158.959
165.261
171.686
178.233
184.9
191.687
198.592
205.616
212.758
220.018
227.394
234.886
242.492
250.212
258.042
265.979
274.021
282.161
290.395
298.714
307.111
315.576
324.097
332.661
341.255
349.864
358.469
367.053
375.596
384.078
392.478
400.774
408.944
416.965
424.814
432.471
439.912
447.118
454.07
460.749
467.139
473.227
479.001
484.45
489.568
494.348
498.786
502.878
506.625
510.025
513.082
515.798
518.176
520.221
521.939
523.336
524.418
525.179
525.551
525.56
525.275
524.694
523.811
522.626
521.137
519.343
517.241
514.832
512.112
509.084
505.746
502.099
498.143
493.88
489.312
484.442
479.27
473.801
468.037
461.982
455.641
449.021
442.128
434.969
427.554
419.892
411.994
403.87
395.533
387
378.287
369.414
360.401
351.275
342.058
332.778
323.459
314.126
304.804
295.515
286.283
277.129
268.074
259.138
250.337
241.682
233.183
224.854
216.705
208.749
200.998
193.462
186.151
179.071
172.23
165.631
159.276
153.165
147.295
141.665
136.269
131.101
126.154
121.414
116.842
112.448
108.254
104.273
100.515
96.9896
93.7091
90.6911
87.9592
85.3969
67.6525
28.8761
21.9837
19.8648
19.2343
19.2547
19.6667
20.3403
21.2131
22.2534
23.4453
24.7815
26.2589
27.8769
29.6354
31.5345
33.5741
35.7535
38.072
40.5286
43.1226
45.8536
48.7217
51.7274
54.8717
58.156
61.5822
65.152
68.8676
72.731
76.7442
80.909
85.2269
89.6994
94.3276
99.1123
104.054
109.154
114.411
119.825
125.395
131.121
137.002
143.035
149.221
155.557
162.042
168.675
175.455
182.381
189.453
196.67
204.032
211.539
219.19
226.986
234.926
243.01
251.236
259.604
268.112
276.756
285.533
294.439
303.466
312.607
321.854
331.195
340.618
350.109
359.652
369.23
378.822
388.407
397.964
407.468
416.895
426.218
435.412
444.449
453.303
461.947
470.356
478.504
486.369
493.929
501.164
508.056
514.59
520.754
526.538
531.933
536.934
541.537
545.739
549.542
552.946
555.954
558.569
560.797
562.642
564.109
565.209
565.913
566.192
566.08
565.618
564.801
563.63
562.102
560.216
557.97
555.365
552.399
549.072
545.386
541.342
536.941
532.187
527.082
521.633
515.844
509.722
503.271
496.5
489.417
482.033
474.357
466.403
458.183
449.711
441.004
432.076
422.946
413.633
404.157
394.54
384.805
374.976
365.08
355.143
345.191
335.248
325.338
315.482
305.698
296.005
286.418
276.955
267.634
258.469
249.47
240.646
232.007
223.564
215.326
207.305
199.51
191.949
184.63
177.558
170.737
164.17
157.855
151.791
145.975
140.401
135.064
129.958
125.068
120.358
115.83
111.506
107.399
103.52
99.8753
96.4755
93.3333
90.4641
87.7351
74.6306
31.4155
23.7032
21.2948
20.5364
20.4961
20.8746
21.5333
22.399
23.434
24.6183
25.9418
27.3996
28.9902
30.7132
32.5693
34.5592
36.6836
38.9433
41.3388
43.871
46.5409
49.3498
52.2992
55.3915
58.6288
62.014
65.5499
69.2395
73.0859
77.092
81.2603
85.5935
90.0939
94.7638
99.6052
104.62
109.81
115.176
120.719
126.44
132.339
138.416
144.67
151.101
157.708
164.49
171.447
178.578
185.884
193.363
201.015
208.842
216.843
225.019
233.369
241.895
250.595
259.47
268.517
277.737
287.125
296.678
306.39
316.257
326.268
336.415
346.686
357.067
367.541
378.092
388.699
399.34
409.991
420.626
431.217
441.735
452.151
462.433
472.55
482.471
492.165
501.601
510.75
519.585
528.078
536.208
543.952
551.292
558.213
564.702
570.748
576.344
581.485
586.168
590.393
594.161
597.475
600.338
602.754
604.728
606.266
607.373
608.025
608.217
607.97
607.308
606.231
604.741
602.835
600.513
597.773
594.616
591.039
587.046
582.636
577.814
572.583
566.948
560.914
554.49
547.683
540.506
532.966
525.078
516.853
508.31
499.463
490.333
480.94
471.305
461.451
451.402
441.183
430.821
420.342
409.77
399.133
388.459
377.774
367.107
356.483
345.927
335.458
325.093
314.848
304.732
294.756
284.933
275.279
265.807
256.523
247.433
238.544
229.865
221.403
213.168
205.166
197.405
189.892
182.632
175.63
168.886
162.401
156.171
150.194
144.463
138.976
133.723
128.691
123.846
119.194
114.753
110.535
106.545
102.793
99.2831
96.0258
93.0296
90.1587
80.3748
33.498
25.0983
22.4412
21.5678
21.4733
21.8238
22.4697
23.3301
24.3624
25.543
26.8593
28.3046
29.8759
31.5726
33.3951
35.3447
37.4227
39.6308
41.971
44.4451
47.0556
49.8048
52.6957
55.7316
58.9159
62.2528
65.7461
69.4001
73.2187
77.2056
81.3643
85.6984
90.2111
94.9062
99.787
104.857
110.12
115.578
121.235
127.092
133.151
139.413
145.879
152.548
159.422
166.501
173.783
181.27
188.962
196.859
204.962
213.27
221.786
230.509
239.441
248.581
257.929
267.486
277.251
287.221
297.393
307.765
318.33
329.081
340.011
351.106
362.356
373.744
385.252
396.861
408.547
420.286
432.05
443.81
455.533
467.187
478.737
490.148
501.383
512.406
523.181
533.673
543.849
553.675
563.123
572.164
580.773
588.929
596.614
603.811
610.509
616.699
622.374
627.53
632.168
636.288
639.893
642.986
645.571
647.653
649.238
650.327
650.912
650.991
650.572
649.667
648.288
646.434
644.103
641.294
638.004
634.234
629.984
625.255
620.049
614.372
608.227
601.623
594.567
587.071
579.147
570.81
562.074
552.957
543.481
533.666
523.539
513.127
502.458
491.564
480.476
469.226
457.849
446.377
434.846
423.284
411.718
400.181
388.703
377.311
366.032
354.886
343.893
333.065
322.411
311.932
301.63
291.511
281.596
271.892
262.4
253.122
244.061
235.222
226.61
218.231
210.091
202.195
194.548
187.158
180.027
173.157
166.547
160.192
154.09
148.236
142.625
137.25
132.092
127.131
122.377
117.84
113.528
109.447
105.603
101.999
98.6406
95.5325
92.5443
84.7345
35.0815
26.1496
23.2948
22.3278
22.1888
22.5174
23.1544
24.0133
25.0474
26.2303
27.5469
28.9888
30.5518
32.2343
34.0364
35.9591
38.0041
40.1738
42.4707
44.8978
47.4585
50.1564
52.9956
55.9808
59.1169
62.409
65.8628
69.4846
73.2789
77.249
81.399
85.733
90.2559
94.9727
99.889
105.01
110.342
115.89
121.659
127.655
133.878
140.332
147.019
153.94
161.096
168.489
176.119
183.986
192.093
200.439
209.025
217.852
226.922
236.235
245.792
255.594
265.639
275.929
286.461
297.235
308.245
319.489
330.959
342.648
354.546
366.641
378.917
391.358
403.943
416.65
429.453
442.324
455.23
468.14
481.017
493.823
506.518
519.064
531.418
543.539
555.387
566.923
578.106
588.903
599.278
609.2
618.641
627.578
635.987
643.852
651.158
657.895
664.056
669.637
674.637
679.058
682.901
686.17
688.871
691.009
692.588
693.613
694.082
693.989
693.323
692.107
690.359
688.074
685.248
681.878
677.964
673.504
668.498
662.949
656.86
650.235
643.083
635.412
627.233
618.561
609.413
599.807
589.766
579.313
568.478
557.29
545.783
533.992
521.959
509.723
497.327
484.811
472.219
459.592
446.977
434.402
421.899
409.5
397.24
385.146
373.245
361.554
350.09
338.856
327.867
317.106
306.562
296.236
286.151
276.309
266.705
257.335
248.196
239.289
230.616
222.181
213.986
206.033
198.326
190.875
183.682
176.747
170.068
163.641
157.462
151.526
145.829
140.363
135.108
130.065
125.239
120.634
116.255
112.107
108.192
104.513
101.073
97.8723
94.7919
87.6723
36.1561
26.8552
23.8602
22.8258
22.6559
22.9717
23.6066
24.4704
25.5136
26.7074
28.0349
29.4862
31.0557
32.7408
34.5409
36.4566
38.4897
40.6425
42.9182
45.3203
47.8531
50.5214
53.3305
56.2866
59.3966
62.6659
66.1002
69.7064
73.4903
77.4576
81.6139
85.9649
90.5173
95.2784
100.256
105.457
110.891
116.563
122.48
128.648
135.072
141.755
148.704
155.921
163.409
171.169
179.203
187.511
196.095
204.955
214.093
223.511
233.208
243.185
253.444
263.984
274.804
285.903
297.28
308.932
320.853
333.039
345.481
358.171
371.096
384.242
397.592
411.126
424.822
438.654
452.591
466.603
480.655
494.707
508.721
522.655
536.463
550.102
563.525
576.687
589.543
602.049
614.163
625.846
637.059
647.77
657.947
667.563
676.597
685.027
692.838
700.019
706.563
712.464
717.723
722.34
726.32
729.666
732.384
734.48
735.961
736.83
737.083
736.721
735.699
734.08
731.865
729.049
725.627
721.596
716.953
711.698
705.831
699.354
692.271
684.59
676.318
667.467
658.053
648.092
637.608
626.625
615.172
603.278
590.983
578.327
565.35
552.099
538.624
524.978
511.219
497.388
483.542
469.734
456.001
442.36
428.88
415.604
402.567
389.799
377.324
365.155
353.308
341.772
330.578
319.654
308.985
298.558
288.429
278.579
268.992
259.656
250.562
241.709
233.092
224.713
216.569
208.661
200.982
193.552
186.374
179.447
172.766
166.327
160.127
154.158
148.419
142.9
137.602
132.522
127.662
123.024
118.61
114.422
110.464
106.734
103.236
99.9646
96.8186
88.9695
36.6682
27.2051
24.1456
23.0804
22.9
23.2172
23.8621
24.7426
25.8076
27.027
28.3825
29.8629
31.4615
33.1748
35.0013
36.9414
38.9962
41.1684
43.4609
45.8779
48.4242
51.1057
53.9294
56.9006
60.0255
63.3114
66.7659
70.3974
74.2138
78.2233
82.4343
86.8555
91.4957
96.3643
101.471
106.825
112.436
118.313
124.464
130.896
137.616
144.63
151.942
159.558
167.483
175.719
184.268
193.132
202.31
211.806
221.618
231.748
242.197
252.962
264.046
275.445
287.159
299.184
311.517
324.152
337.084
350.303
363.801
377.564
391.579
405.828
420.291
434.946
449.765
464.719
479.776
494.899
510.05
525.186
540.264
555.236
570.056
584.673
599.039
613.104
626.82
640.141
653.021
665.418
677.294
688.614
699.344
709.458
718.931
727.743
735.878
743.323
750.071
756.117
761.463
766.109
770.06
773.321
775.899
777.802
779.036
779.607
779.503
778.696
777.187
775.028
772.208
768.723
764.567
759.737
754.23
748.044
741.179
733.64
725.43
716.558
707.035
696.878
686.101
674.731
662.792
650.319
637.344
623.907
610.054
595.845
581.321
566.54
551.567
536.436
521.187
505.927
490.731
475.678
460.855
446.327
432.061
418.094
404.46
391.187
378.296
365.794
353.691
341.97
330.669
319.671
308.985
298.571
288.502
278.736
269.252
260.034
251.07
242.351
233.871
225.627
217.614
209.828
202.259
194.949
187.881
181.048
174.446
168.069
161.916
155.971
150.246
144.744
139.461
134.396
129.547
124.915
120.501
116.309
112.337
108.584
105.054
101.737
98.5533
89.153
36.7381
27.258
24.1979
23.1402
22.9758
23.3153
23.9908
24.9108
26.0233
27.2972
28.7134
30.2596
31.9284
33.7155
35.6188
37.6382
39.7754
42.0322
44.4115
46.9172
49.5544
52.3284
55.2452
58.3127
61.5388
64.9326
68.5036
72.262
76.2182
80.383
84.7676
89.3834
94.2419
99.3552
104.735
110.393
116.341
122.588
129.146
136.023
143.228
150.767
158.646
166.87
175.441
184.367
193.649
203.288
213.285
223.638
234.349
245.415
256.834
268.606
280.727
293.193
305.999
319.139
332.606
346.391
360.484
374.873
389.543
404.479
419.662
435.07
450.681
466.466
482.395
498.435
514.549
530.697
546.836
562.922
578.906
594.739
610.371
625.75
640.824
655.543
669.856
683.717
697.079
709.901
722.145
733.775
744.76
755.072
764.688
773.588
781.757
789.181
795.855
801.773
806.938
811.352
815.02
817.947
820.144
821.618
822.383
822.416
821.721
820.239
818.045
815.134
811.5
807.138
802.042
796.208
789.632
782.313
774.252
765.453
755.924
745.672
734.713
723.067
710.756
697.805
684.249
670.137
655.502
640.389
624.853
608.876
592.587
576.072
559.426
542.795
526.251
509.788
493.484
477.429
461.759
446.325
431.254
416.596
402.388
388.655
375.411
362.661
350.4
338.608
327.275
316.353
305.812
295.624
285.782
276.264
267.045
258.103
249.419
240.98
232.777
224.8
217.044
209.499
202.147
195.03
188.133
181.454
174.991
168.731
162.678
156.825
151.198
145.788
140.588
135.596
130.811
126.229
121.857
117.695
113.743
109.999
106.464
103.13
99.9364
88.0907
36.4208
27.0795
24.0836
23.0768
22.9663
23.3728
24.1269
25.1361
26.3498
27.7373
29.2793
30.9634
32.7819
34.73
36.8052
39.0069
41.3354
43.7932
46.3834
49.1104
51.9795
54.9968
58.1695
61.506
65.016
68.71
72.5993
76.6961
81.0132
85.564
90.3622
95.4221
100.758
106.384
112.316
118.566
125.149
132.075
139.356
147.001
155.022
163.425
172.215
181.395
190.966
200.929
211.284
222.033
233.174
244.705
256.622
268.921
281.596
294.642
308.051
321.813
335.92
350.359
365.119
380.184
395.538
411.163
427.039
443.144
459.455
475.946
492.588
509.35
526.198
543.094
560
576.872
593.668
610.339
626.839
643.117
659.123
674.807
690.118
705.005
719.423
733.325
746.67
759.418
771.534
782.986
793.746
803.789
813.092
821.639
829.415
836.408
842.612
848.022
852.642
856.472
859.522
861.793
863.301
864.057
864.045
863.277
861.678
859.314
856.182
852.278
847.595
842.126
835.866
828.809
820.952
812.293
802.836
792.584
781.549
769.739
757.175
743.883
729.89
715.223
699.92
683.956
667.441
650.451
633.047
615.445
597.644
579.685
561.68
543.802
525.916
508.19
490.724
473.61
456.926
440.693
424.965
409.783
395.179
381.173
367.771
354.97
342.754
331.096
319.963
309.313
299.104
289.297
279.863
270.769
261.986
253.483
245.237
237.228
229.444
221.872
214.502
207.321
200.325
193.525
186.913
180.49
174.26
168.22
162.37
156.703
151.239
145.976
140.91
136.039
131.362
126.877
122.592
118.505
114.612
110.913
107.409
104.087
100.915
85.8022
35.6612
26.6489
23.8193
22.9459
22.9738
23.5195
24.4194
25.5919
26.9885
28.5797
30.347
32.2786
34.367
36.608
38.9994
41.5407
44.2328
47.0783
50.0807
53.2448
56.5764
60.0822
63.7701
67.6498
71.7318
76.0281
80.5515
85.3159
90.3358
95.6265
101.204
107.084
113.284
119.819
126.709
133.968
141.609
149.643
158.077
166.921
176.178
185.853
195.95
206.471
217.415
228.779
240.56
252.754
265.353
278.351
291.739
305.507
319.643
334.135
348.97
364.131
379.604
395.368
411.406
427.693
444.209
460.927
477.821
494.864
512.028
529.283
546.597
563.937
581.265
598.544
615.734
632.794
649.682
666.355
682.767
698.873
714.627
729.984
744.896
759.32
773.215
786.542
799.265
811.349