/*--------------------------------*- C++ -*----------------------------------*\
| =========                 |                                                 |
| \\      /  F ield         | OpenFOAM: The Open Source CFD Toolbox           |
|  \\    /   O peration     | Version:  2306                                  |
|   \\  /    A nd           | Website:  www.openfoam.com                      |
|    \\/     M anipulation  |                                                 |
\*---------------------------------------------------------------------------*/
FoamFile
{
    version     2.0;
    format      ascii;
    arch        "LSB;label=32;scalar=64";
    class       volScalarField;
    location    "100";
    object      k;
}
// * * * * * * * * * * * * * * * * * * * * * * * * * * * * * * * * * * * * * //

dimensions      [0 2 -2 0 0 0 0];

internalField   nonuniform List<scalar> 
12225
(
0.571481
0.987658
1.28117
1.45561
1.54171
1.57754
1.57647
1.5662
1.54805
1.52427
1.50097
1.47863
1.45865
1.43994
1.4244
1.40907
1.39846
1.38453
0.438459
0.496925
0.521901
0.534926
0.542824
0.547366
0.550173
0.552102
0.5559
0.559242
0.565328
0.57083
0.579131
0.586413
0.596103
0.604473
0.61415
0.624172
0.387567
0.417493
0.424191
0.42153
0.415027
0.404979
0.393801
0.382805
0.371943
0.362407
0.353254
0.346075
0.338983
0.334271
0.329098
0.326564
0.322979
0.322098
0.376179
0.384813
0.388125
0.387416
0.385431
0.381144
0.375679
0.369568
0.363116
0.356575
0.350115
0.343825
0.337833
0.332098
0.326799
0.321727
0.317205
0.312769
0.374177
0.375372
0.376397
0.37593
0.374798
0.372514
0.369615
0.366144
0.362487
0.358483
0.354564
0.350392
0.346537
0.342419
0.338823
0.334874
0.331658
0.327927
0.373737
0.372543
0.371996
0.371084
0.369917
0.368271
0.366341
0.364038
0.361645
0.358977
0.356381
0.353553
0.350931
0.348072
0.345546
0.342739
0.34039
0.337682
0.373769
0.371725
0.37023
0.368833
0.367465
0.365943
0.364347
0.362557
0.360739
0.358758
0.356822
0.354744
0.352784
0.350685
0.348771
0.346701
0.344886
0.342873
0.373818
0.371563
0.36962
0.367861
0.366251
0.364666
0.363124
0.361526
0.35995
0.358305
0.356704
0.355037
0.353442
0.351786
0.350233
0.348613
0.347132
0.345558
0.373832
0.371554
0.369457
0.367511
0.365723
0.364027
0.362431
0.360865
0.35936
0.357858
0.356409
0.354954
0.353554
0.352145
0.350803
0.349447
0.348174
0.346872
0.373832
0.37156
0.369425
0.36741
0.36553
0.363754
0.362089
0.360496
0.358985
0.357522
0.356123
0.354757
0.353449
0.352164
0.350935
0.349725
0.348572
0.347429
0.37383
0.371561
0.369417
0.367385
0.365469
0.363654
0.361944
0.36032
0.358783
0.357315
0.355919
0.354578
0.353299
0.352066
0.350887
0.349745
0.348653
0.347595
0.373828
0.371559
0.369412
0.367375
0.365449
0.363621
0.361891
0.36025
0.358695
0.357214
0.355809
0.354467
0.35319
0.351968
0.350802
0.349684
0.348615
0.347588
0.373827
0.371557
0.369407
0.367369
0.365437
0.363604
0.361866
0.360216
0.35865
0.35716
0.355745
0.354398
0.353115
0.351893
0.350727
0.349614
0.348551
0.347535
0.373827
0.371555
0.369403
0.367362
0.365428
0.363592
0.36185
0.360195
0.358622
0.357127
0.355705
0.354351
0.353063
0.351836
0.350666
0.349551
0.348485
0.34747
0.373826
0.371553
0.369399
0.367357
0.36542
0.363582
0.361836
0.360178
0.358602
0.357103
0.355677
0.354319
0.353026
0.351794
0.35062
0.349501
0.348432
0.347414
0.373826
0.371552
0.369396
0.367352
0.365413
0.363573
0.361825
0.360164
0.358585
0.357083
0.355654
0.354294
0.352997
0.351763
0.350585
0.349462
0.34839
0.347369
0.373825
0.371551
0.369394
0.367349
0.365408
0.363566
0.361816
0.360153
0.358572
0.357068
0.355636
0.354273
0.352974
0.351737
0.350557
0.349431
0.348357
0.347333
0.373825
0.371551
0.369393
0.367347
0.365405
0.363561
0.36181
0.360145
0.358562
0.357056
0.355623
0.354258
0.352957
0.351718
0.350536
0.349409
0.348333
0.347307
0.373825
0.371551
0.369393
0.367346
0.365404
0.36356
0.361808
0.360142
0.358558
0.357051
0.355617
0.35425
0.352949
0.351708
0.350525
0.349397
0.34832
0.347293
0.373825
0.371551
0.369394
0.367348
0.365406
0.363562
0.36181
0.360145
0.358561
0.357054
0.35562
0.354253
0.352952
0.351711
0.350529
0.3494
0.348324
0.347297
0.373826
0.371552
0.369396
0.367351
0.365409
0.363567
0.361815
0.360152
0.358569
0.357063
0.35563
0.354265
0.352965
0.351726
0.350545
0.349418
0.348343
0.347317
0.373826
0.371553
0.369398
0.367355
0.365415
0.363575
0.361827
0.360167
0.358589
0.357089
0.355661
0.354303
0.353008
0.351774
0.350597
0.349474
0.348402
0.347376
0.373826
0.371555
0.369401
0.367363
0.365431
0.363605
0.361874
0.360235
0.358679
0.3572
0.355791
0.354447
0.353162
0.351934
0.350756
0.349628
0.348545
0.347505
0.373827
0.371555
0.369413
0.367418
0.365544
0.363793
0.362137
0.36057
0.359069
0.357629
0.356237
0.354892
0.353584
0.352318
0.351084
0.349888
0.348721
0.347593
0.373819
0.371564
0.369582
0.367845
0.366223
0.364711
0.363218
0.361752
0.360264
0.358784
0.357285
0.355796
0.354302
0.352828
0.351355
0.349917
0.348487
0.347102
0.373767
0.371946
0.370917
0.369978
0.368912
0.367766
0.366325
0.364735
0.362931
0.361058
0.359056
0.357049
0.354965
0.352918
0.350837
0.348816
0.346782
0.344828
0.374093
0.3752
0.377259
0.377562
0.377092
0.375807
0.37349
0.370864
0.367803
0.364685
0.361328
0.358023
0.3546
0.351284
0.347917
0.34469
0.341464
0.338402
0.377677
0.394075
0.402941
0.40235
0.400305
0.396039
0.390668
0.385161
0.379137
0.373297
0.367226
0.361469
0.355724
0.350299
0.345133
0.340192
0.335732
0.331321
0.405777
0.438975
0.451198
0.455809
0.459134
0.46227
0.465012
0.467256
0.469286
0.470895
0.472579
0.474008
0.475662
0.477185
0.479357
0.48098
0.48385
0.485564
0.479016
0.68492
0.86515
0.990795
1.09436
1.17579
1.23933
1.28331
1.31493
1.33186
1.34301
1.34321
1.34106
1.33588
1.32736
1.31718
1.3062
1.29469
0.00946829
0.0192107
0.0286339
0.0365926
0.0430585
0.0482651
0.0524369
0.0559699
0.0592428
0.0622138
0.0650855
0.0680772
0.0714481
0.075427
0.0803077
0.0861516
0.092842
0.100255
0.108395
0.117249
0.12689
0.137357
0.148795
0.161155
0.174404
0.188494
0.203438
0.219103
0.235457
0.252369
0.269789
0.28758
0.305699
0.324019
0.342506
0.361049
0.379632
0.398168
0.416659
0.435032
0.453305
0.47142
0.489405
0.507212
0.524876
0.542357
0.559693
0.576852
0.593876
0.610741
0.627484
0.644078
0.660557
0.676894
0.693118
0.709202
0.725172
0.741001
0.756709
0.772272
0.787701
0.802976
0.818101
0.833059
0.847845
0.86245
0.876859
0.891069
0.905056
0.918824
0.932339
0.945606
0.958585
0.971298
0.9837
0.995825
1.00762
1.01914
1.03032
1.04124
1.05183
1.06216
1.07218
1.08196
1.09143
1.10068
1.10964
1.1184
1.12691
1.13525
1.1434
1.15135
1.15912
1.16676
1.17432
1.1818
1.18912
1.196
1.20261
1.20866
1.21439
1.21909
1.22204
1.22049
1.22458
1.23104
1.23916
1.23925
1.23886
1.24121
1.24392
1.24512
1.24607
1.24705
1.2481
1.24788
1.25007
1.24548
1.24439
1.24405
1.24434
1.23883
1.23391
1.22789
1.22118
1.2137
1.20545
1.19649
1.18677
1.17635
1.1651
1.15308
1.14028
1.12675
1.11247
1.0975
1.08185
1.06543
1.04832
1.03056
1.01217
0.993301
0.973936
0.95414
0.933957
0.913288
0.892407
0.871736
0.849989
0.830668
0.816956
0.804074
0.791085
0.777903
0.764587
0.751161
0.737729
0.724298
0.710714
0.697105
0.683684
0.670575
0.657786
0.644888
0.632154
0.619728
0.607668
0.595941
0.584551
0.57353
0.562878
0.552577
0.542623
0.532948
0.523633
0.514087
0.505644
0.493723
0.48779
0.457537
0.027103
0.0529524
0.0737301
0.0895444
0.102664
0.114012
0.124043
0.133043
0.141372
0.149558
0.158054
0.16725
0.177454
0.188866
0.201572
0.215559
0.230815
0.247317
0.265047
0.283995
0.304184
0.325631
0.348361
0.37236
0.39761
0.424069
0.451695
0.480421
0.51016
0.540783
0.572182
0.604239
0.636855
0.669914
0.703322
0.736974
0.770793
0.804696
0.838628
0.872528
0.906357
0.940074
0.973657
1.00708
1.04033
1.0734
1.10628
1.13897
1.17148
1.20381
1.23597
1.26795
1.29976
1.3314
1.36288
1.39418
1.42531
1.45626
1.48701
1.51757
1.54791
1.57802
1.60789
1.63748
1.66679
1.69577
1.72441
1.75269
1.78056
1.80802
1.83502
1.86156
1.88757
1.913
1.93781
1.96201
1.98554
2.0084
2.03058
2.05208
2.07287
2.09297
2.11238
2.13111
2.14916
2.16655
2.18329
2.19943
2.21499
2.23002
2.24456
2.25862
2.27224
2.28543
2.29826
2.31074
2.32292
2.33464
2.34596
2.35676
2.36705
2.3767
2.38571
2.39418
2.40273
2.40988
2.41709
2.42295
2.42799
2.4331
2.43714
2.43897
2.44534
2.44704
2.44974
2.4507
2.45359
2.45211
2.45176
2.45099
2.45038
2.44653
2.44193
2.43613
2.42918
2.42102
2.41164
2.401
2.38911
2.376
2.3615
2.34552
2.32803
2.30904
2.28852
2.26649
2.24297
2.21798
2.19155
2.16372
2.13453
2.10401
2.07225
2.03935
2.0054
1.97043
1.93446
1.89785
1.86067
1.82273
1.78478
1.74645
1.70776
1.66888
1.62997
1.59121
1.55273
1.5146
1.47633
1.43838
1.4011
1.36469
1.32916
1.29424
1.26016
1.22712
1.19518
1.16423
1.13431
1.10547
1.07772
1.05103
1.02537
1.00073
0.977046
0.954099
0.932551
0.909655
0.893832
0.849669
0.0435681
0.0839721
0.111273
0.131642
0.148745
0.163944
0.177944
0.191236
0.204257
0.21743
0.231157
0.245803
0.261666
0.278957
0.297798
0.31823
0.340246
0.363806
0.388866
0.415384
0.443336
0.472699
0.503457
0.535579
0.569033
0.603767
0.639724
0.676813
0.714918
0.753923
0.793723
0.834209
0.875275
0.916815
0.958728
1.00092
1.0433
1.08579
1.12833
1.17087
1.21336
1.25576
1.29806
1.34021
1.38222
1.42406
1.46573
1.50723
1.54856
1.58971
1.63068
1.67149
1.71212
1.75257
1.79284
1.83294
1.87284
1.91255
1.95205
1.99134
2.03038
2.06917
2.10768
2.14589
2.18376
2.22127
2.25838
2.29505
2.33125
2.36693
2.40206
2.4366
2.47048
2.50368
2.53614
2.56783
2.59872
2.62876
2.65794
2.68623
2.7136
2.74005
2.76556
2.79012
2.81373
2.83638
2.85809
2.87887
2.89875
2.91775
2.93591
2.95325
2.96979
2.98558
3.00063
3.01499
3.02862
3.04146
3.05354
3.06483
3.07536
3.08515
3.09432
3.10283
3.11081
3.11782
3.12457
3.13025
3.13507
3.13936
3.14272
3.14528
3.14834
3.14952
3.14961
3.14871
3.14784
3.14543
3.14248
3.1384
3.13349
3.12684
3.11895
3.10969
3.09901
3.08687
3.07321
3.05797
3.04111
3.02259
3.00234
2.98028
2.9564
2.93067
2.90308
2.87365
2.84237
2.8093
2.77446
2.73791
2.69971
2.65991
2.61859
2.57583
2.53173
2.48632
2.4397
2.39216
2.3441
2.29554
2.24667
2.19741
2.14786
2.09817
2.04854
1.99916
1.95017
1.9017
1.85371
1.8064
1.75995
1.71452
1.67014
1.62633
1.58354
1.54202
1.50184
1.46282
1.42503
1.3886
1.35351
1.31972
1.28726
1.25609
1.2262
1.19747
1.17034
1.14335
1.12295
1.08551
0.0582551
0.114576
0.147965
0.172473
0.193007
0.211371
0.228486
0.244967
0.261307
0.277948
0.295294
0.313705
0.333476
0.354823
0.377877
0.402691
0.429262
0.457547
0.487495
0.519051
0.552171
0.586817
0.622952
0.660536
0.699519
0.739836
0.781402
0.824116
0.867883
0.912606
0.958185
1.00451
1.05148
1.09899
1.14693
1.19522
1.24377
1.2925
1.34135
1.39028
1.43922
1.48815
1.53703
1.58583
1.63453
1.68312
1.73159
1.77992
1.82812
1.87616
1.92406
1.97181
2.01941
2.06685
2.11412
2.16124
2.20818
2.25494
2.30151
2.34787
2.394
2.43988
2.48548
2.53079
2.57575
2.62035
2.66452
2.70824
2.75146
2.79412
2.83617
2.87757
2.91824
2.95815
2.99723
3.03543
3.0727
3.10899
3.14426
3.17846
3.21156
3.24352
3.27431
3.30392
3.33232
3.3595
3.38545
3.41019
3.43371
3.45606
3.47724
3.49728
3.51621
3.53405
3.55083
3.56655
3.58123
3.59485
3.60743
3.619
3.62959
3.63926
3.64805
3.65598
3.66306
3.66922
3.67463
3.67906
3.68249
3.6851
3.68656
3.68687
3.6863
3.68483
3.68233
3.67897
3.6747
3.66923
3.66268
3.65487
3.64583
3.6353
3.62334
3.60985
3.5948
3.57811
3.55973
3.53959
3.51765
3.49383
3.4681
3.44039
3.41067
3.37893
3.34517
3.30937
3.27157
3.23179
3.19008
3.14649
3.1011
3.05395
3.00512
2.9547
2.9028
2.84956
2.79517
2.73987
2.68399
2.62764
2.57093
2.5139
2.45667
2.3994
2.34228
2.28552
2.22927
2.17367
2.11881
2.06483
2.01187
1.96007
1.90949
1.86002
1.81181
1.76501
1.71968
1.67551
1.63265
1.59132
1.55146
1.51303
1.47611
1.44067
1.40671
1.37423
1.34351
1.31398
1.28962
1.25652
0.0713126
0.143374
0.183368
0.21223
0.23623
0.257636
0.27759
0.296827
0.315904
0.335295
0.355417
0.376633
0.399245
0.423478
0.44948
0.477323
0.507024
0.538556
0.571875
0.606925
0.643657
0.682021
0.721969
0.763447
0.806397
0.850745
0.896412
0.94331
0.991348
1.04043
1.09045
1.1413
1.19288
1.24509
1.29784
1.35102
1.40458
1.45843
1.51252
1.56678
1.62116
1.67563
1.73014
1.78465
1.83915
1.89361
1.94802
2.00235
2.0566
2.11076
2.16483
2.21878
2.27264
2.32637
2.37999
2.43349
2.48685
2.54007
2.59314
2.64603
2.69874
2.75123
2.80347
2.85545
2.90711
2.95842
3.00932
3.05978
3.10973
3.15912
3.20788
3.25595
3.30325
3.34973
3.3953
3.4399
3.48347
3.52593
3.56721
3.60727
3.64604
3.68347
3.7195
3.75411
3.78726
3.81891
3.84906
3.87769
3.9048
3.9304
3.95453
3.97717
3.99837
4.01813
4.0365
4.05348
4.06908
4.08334
4.09628
4.10794
4.11835
4.12757
4.13564
4.14256
4.14837
4.15305
4.15661
4.15922
4.16044
4.16021
4.15853
4.156
4.15245
4.14775
4.14189
4.13491
4.12673
4.11726
4.10648
4.09431
4.08072
4.06561
4.04894
4.03065
4.01067
3.98895
3.96542
3.94004
3.91274
3.88348
3.8522
3.81886
3.78343
3.7459
3.70625
3.6645
3.62067
3.57478
3.52689
3.47705
3.4253
3.37174
3.31645
3.25954
3.20119
3.14156
3.08084
3.01928
2.95712
2.89451
2.83155
2.76834
2.70501
2.64173
2.5787
2.51611
2.45413
2.39291
2.33259
2.27331
2.21519
2.15835
2.10286
2.04873
1.99604
1.94489
1.89533
1.84727
1.80077
1.75592
1.71262
1.67076
1.63054
1.59193
1.55493
1.51965
1.48627
1.45472
1.4274
1.39392
0.0826416
0.170307
0.216908
0.250177
0.277658
0.302052
0.324702
0.346452
0.367921
0.389612
0.411961
0.435341
0.460066
0.486377
0.514448
0.544381
0.576221
0.609971
0.645602
0.683072
0.722333
0.763331
0.806011
0.850314
0.896175
0.943521
0.992275
1.04235
1.09366
1.1461
1.19959
1.25401
1.30929
1.36531
1.42201
1.47928
1.53705
1.59526
1.65383
1.71271
1.77183
1.83116
1.89065
1.95026
2.00995
2.0697
2.12949
2.18929
2.24909
2.30888
2.36865
2.42838
2.48808
2.54773
2.60733
2.66687
2.72634
2.78574
2.84504
2.90424
2.96332
3.02224
3.08098
3.1395
3.19776
3.25572
3.31333
3.37052
3.42723
3.48339
3.53893
3.59377
3.64783
3.70102
3.75326
3.80444
3.8545
3.90333
3.95086
3.997
4.04168
4.08481
4.12633
4.16617
4.2043
4.24065
4.2752
4.30791
4.33879
4.36783
4.39502
4.4204
4.44396
4.46574
4.48575
4.50402
4.52057
4.53545
4.54868
4.56031
4.57039
4.57895
4.58604
4.59168
4.59591
4.59873
4.59989
4.59961
4.59795
4.59478
4.5902
4.58431
4.57711
4.56856
4.55865
4.54736
4.53467
4.52052
4.50489
4.48774
4.46902
4.44869
4.4267
4.403
4.37753
4.35025
4.3211
4.29004
4.25703
4.22201
4.18494
4.14581
4.10457
4.06122
4.01576
3.96819
3.91853
3.86682
3.8131
3.75742
3.69986
3.64052
3.57952
3.51701
3.45314
3.3881
3.32209
3.2553
3.18795
3.12017
3.0521
2.98383
2.91552
2.84733
2.77947
2.71212
2.64547
2.57967
2.51488
2.45123
2.38886
2.32786
2.26834
2.21033
2.1539
2.09911
2.04601
1.9946
1.9449
1.89698
1.85081
1.80634
1.76364
1.72262
1.68329
1.64582
1.61036
1.57707
1.54739
1.51354
0.0925354
0.194936
0.247874
0.285444
0.316333
0.343628
0.368851
0.39294
0.416563
0.440256
0.464471
0.489592
0.515948
0.5438
0.573347
0.604726
0.638015
0.673247
0.710423
0.749516
0.790488
0.833289
0.877865
0.924155
0.972093
1.02161
1.07262
1.12505
1.17882
1.23383
1.28999
1.34723
1.40544
1.46454
1.52446
1.5851
1.64639
1.70827
1.77067
1.83351
1.89676
1.96034
2.02422
2.08835
2.1527
2.21722
2.28189
2.34669
2.4116
2.4766
2.54167
2.60681
2.672
2.73724
2.80253
2.86785
2.93319
2.99855
3.06391
3.12926
3.19458
3.25983
3.32499
3.39002
3.45488
3.51952
3.58387
3.64787
3.71145
3.77453
3.83703
3.89884
3.95987
4.02002
4.07918
4.13724
4.1941
4.24963
4.30374
4.35631
4.40724
4.45644
4.5038
4.54925
4.5927
4.6341
4.67339
4.71052
4.74547
4.77822
4.80877
4.83711
4.86326
4.88723
4.90905
4.92875
4.94636
4.96191
4.97545
4.98703
4.9967
5.0045
5.01046
5.01466
5.01694
5.0174
5.01595
5.01291
5.00818
5.00173
4.99362
4.9839
4.97258
4.95966
4.94513
4.92899
4.91124
4.89184
4.87079
4.84806
4.82363
4.79748
4.76958
4.73988
4.70836
4.67497
4.6397
4.6025
4.56334
4.52219
4.47903
4.43383
4.38659
4.33729
4.28594
4.23255
4.17714
4.11975
4.06043
3.99926
3.93634
3.87178
3.80572
3.7383
3.66969
3.60006
3.52957
3.45841
3.38675
3.31473
3.24246
3.17007
3.0977
3.02552
2.95373
2.88251
2.81205
2.74251
2.67406
2.60682
2.54094
2.47651
2.41365
2.3524
2.29284
2.23501
2.17896
2.12471
2.07228
2.02171
1.97304
1.92623
1.88133
1.83829
1.79714
1.75799
1.72087
1.6861
1.65449
1.62005
0.102852
0.217174
0.275796
0.317347
0.351433
0.381465
0.40911
0.435379
0.460982
0.486475
0.512322
0.538918
0.566601
0.595652
0.626293
0.658688
0.69295
0.729144
0.767297
0.807406
0.849449
0.893387
0.939172
0.986747
1.03605
1.08701
1.13956
1.19363
1.24912
1.30598
1.36411
1.42343
1.48387
1.54535
1.60779
1.67111
1.73524
1.80012
1.86568
1.93185
1.99858
2.0658
2.13347
2.20155
2.26999
2.33874
2.40779
2.47709
2.54664
2.6164
2.68636
2.75651
2.82684
2.89734
2.968
3.03881
3.10977
3.18087
3.2521
3.32343
3.39485
3.46633
3.53784
3.60934
3.68078
3.75211
3.82326
3.89416
3.96473
4.03487
4.10449
4.17348
4.24173
4.3091
4.37548
4.44074
4.50473
4.56732
4.62838
4.68777
4.74537
4.80103
4.85465
4.90611
4.95532
5.00217
5.0466
5.08854
5.12793
5.16476
5.19899
5.23062
5.25965
5.28609
5.30996
5.33129
5.35011
5.36648
5.38043
5.39201
5.4013
5.40833
5.4131
5.41547
5.4157
5.41384
5.40986
5.40386
5.39583
5.3858
5.3738
5.35987
5.34404
5.32633
5.30674
5.28529
5.26199
5.23683
5.20983
5.18099
5.15031
5.11777
5.08339
5.04713
5.009
4.96898
4.92705
4.88322
4.83746
4.78977
4.74014
4.68856
4.63504
4.57959
4.52221
4.46292
4.40177
4.33881
4.27411
4.20778
4.13991
4.07064
4.00009
3.92841
3.85574
3.78222
3.70802
3.63327
3.55813
3.48269
3.40709
3.33143
3.25585
3.18052
3.10563
3.03136
2.9579
2.8854
2.81403
2.74392
2.67521
2.60802
2.54245
2.47856
2.41642
2.35609
2.29761
2.24101
2.18629
2.13351
2.08271
2.03389
1.98706
1.94224
1.89945
1.85878
1.82033
1.78431
1.75111
1.71596
0.113993
0.236877
0.300365
0.345402
0.382348
0.414871
0.444743
0.473028
0.500459
0.527604
0.55493
0.582836
0.611666
0.641709
0.673205
0.706342
0.741257
0.778044
0.816757
0.857418
0.900024
0.944552
0.990967
1.03922
1.08926
1.14103
1.19446
1.24949
1.30604
1.36406
1.42346
1.48419
1.54616
1.60931
1.67358
1.73888
1.80516
1.87235
1.94038
2.0092
2.07875
2.14897
2.2198
2.2912
2.36313
2.43554
2.5084
2.58168
2.65535
2.72939
2.80378
2.8785
2.95356
3.02893
3.10461
3.1806
3.25688
3.33346
3.4103
3.48741
3.56476
3.64232
3.72006
3.79794
3.87591
3.95392
4.03188
4.10973
4.18736
4.26468
4.34158
4.41793
4.4936
4.56844
4.64231
4.71505
4.7865
4.8565
4.92488
4.99148
5.05613
5.11868
5.17897
5.23688
5.29226
5.34499
5.39498
5.44214
5.48639
5.52767
5.56597
5.60124
5.63347
5.66268
5.68888
5.71209
5.73235
5.74971
5.76422
5.77594
5.78493
5.79123
5.79467
5.79548
5.79373
5.78952
5.78284
5.77375
5.76227
5.74844
5.73231
5.7139
5.69327
5.67043
5.64542
5.61828
5.58902
5.55767
5.52426
5.48883
5.45138
5.41195
5.37055
5.32721
5.28193
5.23474
5.18565
5.13468
5.08184
5.02716
4.97066
4.91234
4.85224
4.79038
4.7268
4.66154
4.59466
4.52624
4.45638
4.38519
4.31276
4.23923
4.16472
4.08936
4.01326
3.93656
3.85936
3.78179
3.70394
3.62591
3.5478
3.46971
3.39176
3.31411
3.23694
3.16043
3.08475
3.01005
2.9365
2.86424
2.79339
2.72408
2.65642
2.59048
2.52632
2.46401
2.4036
2.3451
2.28855
2.23398
2.18143
2.13093
2.0825
2.03615
1.99192
1.94991
1.91021
1.87301
1.83851
1.80264
0.123883
0.253494
0.321116
0.369155
0.408601
0.443336
0.475215
0.505336
0.534449
0.563119
0.591811
0.620919
0.650783
0.681696
0.713904
0.747608
0.782964
0.820087
0.859056
0.899915
0.942682
0.987355
1.03391
1.08233
1.13255
1.18454
1.23825
1.29362
1.35059
1.40912
1.46913
1.53058
1.59341
1.65754
1.72293
1.78952
1.85724
1.92604
1.99585
2.06663
2.13831
2.21084
2.28417
2.35825
2.43303
2.50848
2.58456
2.66123
2.73848
2.81626
2.89457
2.97339
3.05272
3.13253
3.21283
3.29362
3.37487
3.4566
3.53877
3.62139
3.70444
3.78788
3.87168
3.9558
4.0402
4.1248
4.20953
4.29431
4.37904
4.4636
4.54786
4.63169
4.71494
4.79744
4.87902
4.95949
5.03868
5.11638
5.1924
5.26655
5.33862
5.40843
5.4758
5.54054
5.60249
5.66151
5.71747
5.77024
5.81973
5.86586
5.90858
5.94784
5.98362
6.01591
6.04473
6.07009
6.09203
6.1106
6.12585
6.13785
6.14666
6.15222
6.15457
6.15391
6.15027
6.14372
6.1343
6.12206
6.10705
6.0893
6.06886
6.04578
6.02011
5.9919
5.9612
5.92804
5.89248
5.85458
5.81437
5.77191
5.72725
5.68046
5.63157
5.58064
5.52771
5.47284
5.41608
5.35749
5.29711
5.235
5.17121
5.10578
5.03879
4.9703
4.90036
4.82906
4.75648
4.68272
4.60788
4.5321
4.45547
4.37811
4.30014
4.22165
4.14275
4.06352
3.98404
3.90439
3.82463
3.74483
3.66505
3.58536
3.50588
3.42675
3.34813
3.2702
3.1931
3.11699
3.04202
2.96832
2.89603
2.82528
2.75616
2.68876
2.62316
2.55941
2.49756
2.43765
2.37971
2.32378
2.26988
2.21805
2.16833
2.12073
2.07531
2.03216
1.99135
1.95306
1.91733
1.88083
0.132218
0.266803
0.337795
0.388333
0.429897
0.466542
0.500184
0.531944
0.562576
0.592641
0.622593
0.652813
0.68363
0.715329
0.748156
0.782314
0.81797
0.855253
0.894259
0.935051
0.977669
1.02213
1.06843
1.11656
1.16649
1.2182
1.27164
1.32678
1.38359
1.44201
1.50201
1.56354
1.62655
1.691
1.75684
1.82401
1.89248
1.96219
2.03308
2.10511
2.17823
2.25239
2.32754
2.40363
2.48063
2.55848
2.63716
2.71663
2.79687
2.87784
2.95954
3.04194
3.12503
3.20882
3.2933
3.37846
3.4643
3.55081
3.63797
3.72579
3.81424
3.9033
3.99293
4.0831
4.17374
4.2648
4.35619
4.44782
4.53958
4.63136
4.723
4.81436
4.90527
4.99553
5.08496
5.17334
5.26046
5.34609
5.43001
5.51197
5.59176
5.66913
5.74388
5.81579
5.88467
5.95032
6.01259
6.07132
6.1264
6.17771
6.22518
6.26875
6.30838
6.34405
6.37575
6.40352
6.42737
6.44736
6.46353
6.47597
6.48472
6.48973
6.49117
6.48912
6.48364
6.4748
6.46264
6.44723
6.42863
6.40687
6.38202
6.35413
6.32326
6.28948
6.25284
6.21342
6.17129
6.1265
6.07915
6.02931
5.97706
5.92248
5.86567
5.80671
5.74568
5.68267
5.61778
5.55111
5.48275
5.41279
5.34133
5.26847
5.19432
5.11899
5.04258
4.96519
4.88692
4.80792
4.7283
4.64818
4.56769
4.48692
4.40596
4.3249
4.2438
4.1627
4.08166
4.00069
3.91983
3.83908
3.75847
3.67806
3.59791
3.51815
3.43894
3.36044
3.28276
3.20605
3.13044
3.05606
2.98305
2.91154
2.84163
2.77342
2.70696
2.64233
2.57958
2.51876
2.45989
2.40302
2.34818
2.29541
2.24473
2.19619
2.14985
2.10577
2.06405
2.0248
1.98798
1.95084
0.138898
0.276755
0.350335
0.402851
0.446129
0.484352
0.519482
0.552654
0.58462
0.615928
0.647016
0.678248
0.709934
0.742346
0.775718
0.810249
0.846106
0.883425
0.922312
0.962845
1.00508
1.04905
1.09478
1.14227
1.19151
1.2425
1.29522
1.34964
1.40576
1.46353
1.52295
1.58397
1.64657
1.7107
1.77634
1.84345
1.912
1.98195
2.05325
2.12587
2.19976
2.27488
2.35119
2.42865
2.50721
2.58684
2.66751
2.74919
2.83183
2.91544
2.99997
3.08542
3.17177
3.25904
3.34723
3.43632
3.52632
3.61721
3.70899
3.80165
3.89517
3.98953
4.0847
4.18063
4.27728
4.37457
4.47242
4.57074
4.66941
4.76829
4.86723
4.96607
5.0646
5.16264
5.25995
5.3563
5.45144
5.54512
5.63706
5.72701
5.81469
5.89984
5.98219
6.0615
6.13754
6.21007
6.27891
6.34387
6.40479
6.46155
6.51403
6.56216
6.60588
6.64515
6.67996
6.71033
6.73629
6.75786
6.77512
6.78812
6.79693
6.80159
6.80221
6.79885
6.79158
6.78048
6.76561
6.74703
6.72479
6.69897
6.66962
6.6368
6.6006
6.56108
6.51833
6.47244
6.42348
6.37156
6.31677
6.25923
6.19905
6.13634
6.07122
6.00383
5.93429
5.86273
5.7893
5.71414
5.63743
5.55928
5.47984
5.39927
5.31775
5.23544
5.15247
5.06896
4.98506
4.90092
4.8167
4.73252
4.64849
4.56471
4.48126
4.39817
4.31549
4.23321
4.15133
4.06983
3.98867
3.90783
3.82728
3.74703
3.6671
3.58759
3.50869
3.43049
3.3531
3.27663
3.20121
3.12695
3.05398
2.98244
2.91245
2.84407
2.7774
2.71248
2.64938
2.58816
2.52887
2.47152
2.41616
2.36283
2.31157
2.26242
2.21544
2.1707
2.12827
2.08825
2.05054
2.01285
0.14388
0.283387
0.358777
0.412743
0.457316
0.496764
0.533082
0.56741
0.600489
0.632857
0.664928
0.697045
0.729498
0.762536
0.796377
0.831209
0.867191
0.904457
0.943117
0.983257
1.02495
1.06823
1.11316
1.15974
1.208
1.25794
1.30957
1.36287
1.41786
1.47453
1.53289
1.59293
1.65459
1.71785
1.78272
1.84919
1.91722
1.98681
2.05791
2.13051
2.20456
2.28003
2.3569
2.43511
2.51465
2.59548
2.67757
2.76088
2.8454
2.9311
3.01795
3.10594
3.19502
3.28528
3.37672
3.4693
3.56302
3.65787
3.75384
3.85094
3.94915
4.04845
4.1488
4.25017
4.3525
4.45573
4.55976
4.6645
4.76982
4.87558
4.98162
5.08775
5.19377
5.29944
5.40453
5.50876
5.61187
5.71356
5.81353
5.91148
6.00709
6.10006
6.1901
6.2769
6.3602
6.43974
6.51527
6.58659
6.6535
6.71584
6.77349
6.82632
6.87427
6.91729
6.95534
6.98844
7.01661
7.03989
7.05833
7.072
7.08097
7.08533
7.08517
7.08057
7.07153
7.05818
7.04058
7.0188
6.99289
6.96293
6.92898
6.89113
6.84946
6.80406
6.75501
6.70244
6.64644
6.58714
6.52466
6.45914
6.39071
6.31955
6.2458
6.16964
6.09125
6.0108
5.92849
5.84455
5.75919
5.6726
5.58495
5.49649
5.40741
5.31791
5.22803
5.13813
5.04841
4.95908
4.8703
4.78224
4.69499
4.60864
4.52323
4.43877
4.35525
4.27261
4.19079
4.10971
4.02927
3.94937
3.86994
3.79093
3.71232
3.63411
3.55646
3.4795
3.4033
3.32796
3.25358
3.18026
3.10812
3.03733
2.96798
2.90015
2.83392
2.76933
2.70648
2.64543
2.58622
2.52888
2.47346
2.41999
2.36852
2.31912
2.27182
2.22671
2.18382
2.14325
2.10485
2.06678
0.147205
0.286852
0.363241
0.418119
0.463563
0.503874
0.541061
0.57626
0.610205
0.643414
0.676284
0.709131
0.742221
0.77578
0.810005
0.845064
0.881105
0.918254
0.956617
0.996283
1.03733
1.07981
1.12379
1.16931
1.2164
1.2651
1.31538
1.36727
1.42081
1.47602
1.53296
1.59167
1.65204
1.71408
1.77781
1.84323
1.91033
1.97909
2.04952
2.1216
2.19529
2.27059
2.34747
2.4259
2.50586
2.58733
2.67027
2.75468
2.84052
2.92777
3.01643
3.10646
3.19787
3.29072
3.38498
3.48063
3.57766
3.67605
3.77577
3.87688
3.97936
4.08318
4.1883
4.29469
4.4023
4.51105
4.62087
4.73164
4.84324
4.95551
5.06829
5.18137
5.29454
5.40754
5.52012
5.63197
5.7428
5.85227
5.96006
6.06582
6.16921
6.26987
6.36746
6.46165
6.55214
6.63861
6.72079
6.79844
6.87131
6.93924
7.00204
7.05959
7.11178
7.15855
7.19986
7.23571
7.2661
7.29108
7.31071
7.32504
7.33417
7.33819
7.33727
7.33139
7.32056
7.30492
7.28453
7.25946
7.22978
7.19556
7.15689
7.11386
7.06655
7.01508
6.95955
6.90009
6.83682
6.76991
6.69949
6.62573
6.54881
6.46893
6.38628
6.3011
6.21361
6.12402
6.03262
5.93964
5.84517
5.7495
5.65303
5.5561
5.45905
5.36211
5.26602
5.17058
5.07589
4.98218
4.88966
4.79846
4.7087
4.62044
4.53371
4.44848
4.36471
4.28228
4.20109
4.121
4.04186
3.96351
3.88582
3.80869
3.73205
3.65586
3.58053
3.50591
3.432
3.35885
3.28653
3.21514
3.1447
3.07546
3.00753
2.94098
2.87588
2.81228
2.75031
2.69
2.63142
2.57461
2.51959
2.46643
2.41518
2.3659
2.31863
2.27345
2.23038
2.18952
2.15068
2.11241
0.148728
0.286956
0.363702
0.419061
0.464998
0.505826
0.54356
0.579336
0.61388
0.647695
0.681155
0.714555
0.748136
0.782097
0.816612
0.851829
0.887877
0.924869
0.962904
1.00207
1.04244
1.08408
1.12706
1.17144
1.21728
1.26468
1.31359
1.36406
1.41612
1.46979
1.5251
1.58204
1.64067
1.70104
1.76317
1.8271
1.89283
1.96038
2.02974
2.10091
2.1739
2.24868
2.32524
2.40358
2.48367
2.5655
2.64903
2.73427
2.82117
2.90974
2.99995
3.09177
3.18516
3.28017
3.3768
3.47505
3.57492
3.6764
3.77947
3.8842
3.99051
4.09837
4.20777
4.31868
4.43104
4.5448
4.65986
4.77611
4.89343
5.01166
5.13061
5.25009
5.36985
5.48963
5.60916
5.7281
5.84614
5.96291
6.07805
6.19118
6.30191
6.40986
6.51463
6.61587
6.71321
6.80631
6.89487
6.97858
7.05719
7.13047
7.19824
7.26032
7.31658
7.36695
7.41137
7.44981
7.48229
7.50884
7.52951
7.54438
7.55354
7.55704
7.5553
7.548
7.53526
7.51719
7.49386
7.46534
7.43172
7.39307
7.34949
7.30107
7.24793
7.19017
7.12794
7.06136
6.9906
6.91586
6.83728
6.75506
6.66944
6.58064
6.4889
6.39416
6.29692
6.19753
6.09634
5.9938
5.89053
5.78677
5.68259
5.57836
5.47449
5.37123
5.26934
5.16817
5.06837
4.97024
4.874
4.77984
4.68785
4.59808
4.51055
4.42519
4.34189
4.26051
4.18086
4.10274
4.02592
3.95018
3.87533
3.80119
3.72765
3.65454
3.58215
3.51043
3.43935
3.36896
3.2993
3.23045
3.1625
3.09573
3.03011
2.9657
2.90256
2.84069
2.78023
2.7213
2.66393
2.60817
2.55407
2.50168
2.45108
2.40232
2.35545
2.31053
2.2676
2.22672
2.1877
2.14943
0.149018
0.28495
0.36129
0.416474
0.462362
0.503236
0.541096
0.577068
0.611864
0.64597
0.679743
0.713457
0.747329
0.781537
0.816231
0.851539
0.887572
0.924428
0.962195
1.00095
1.04077
1.08171
1.12385
1.16724
1.21191
1.25791
1.30524
1.35401
1.4043
1.45618
1.5097
1.56493
1.6219
1.68064
1.74122
1.80365
1.86799
1.93424
2.00245
2.07261
2.14475
2.21887
2.29496
2.37302
2.45305
2.53502
2.61894
2.70477
2.7925
2.88212
2.97361
3.06695
3.16213
3.25915
3.35803
3.45875
3.56131
3.66568
3.77183
3.87976
3.98947
4.10094
4.21416
4.32904
4.4456
4.56376
4.68343
4.80451
4.92687
5.05034
5.17475
5.29988
5.42549
5.55131
5.67704
5.80234
5.92687
6.05023
6.17204
6.29187
6.40931
6.52393
6.63531
6.74303
6.8467
6.94594
7.04039
7.12972
7.21364
7.29189
7.36424
7.43049
7.49049
7.54412
7.59132
7.63204
7.66628
7.69407
7.71546
7.73054
7.73944
7.74201
7.7392
7.73016
7.71518
7.69434
7.66772
7.6354
7.59745
7.55398
7.50508
7.45088
7.39148
7.32703
7.25768
7.18358
7.10489
7.02164
6.93413
6.84264
6.74746
6.64894
6.54743
6.44358
6.33737
6.22914
6.1193
6.00838
5.8971
5.78487
5.67247
5.56041
5.44916
5.33909
5.23062
5.12394
5.0194
4.91732
4.81794
4.72143
4.6279
4.5374
4.4499
4.36529
4.28342
4.20407
4.12698
4.05188
3.97845
3.9064
3.83546
3.76542
3.69608
3.62733
3.55917
3.49158
3.42454
3.35805
3.29215
3.22688
3.16223
3.0985
3.03573
2.97398
2.91331
2.85368
2.79547
2.73861
2.68312
2.62904
2.57643
2.52533
2.47582
2.428
2.38191
2.33761
2.29511
2.2545
2.21555
2.17759
0.147899
0.279786
0.355036
0.409617
0.455115
0.495745
0.533488
0.569453
0.604334
0.638598
0.672581
0.706534
0.740648
0.775078
0.809948
0.845365
0.881418
0.918187
0.955745
0.99416
1.0335
1.07383
1.11522
1.15772
1.20141
1.24638
1.29267
1.34034
1.38948
1.44016
1.49245
1.54643
1.60215
1.65967
1.71905
1.78036
1.84364
1.90893
1.97628
2.04572
2.11728
2.19097
2.26679
2.34476
2.42488
2.50713
2.5915
2.67798
2.76656
2.85721
2.94991
3.04464
3.1414
3.24016
3.34092
3.44366
3.54838
3.65505
3.76366
3.87423
3.98667
4.101
4.21713
4.33503
4.45472
4.57614
4.69921
4.82382
4.94985
5.07715
5.20554
5.33481
5.46473
5.59502
5.72537
5.85546
5.9849
6.1133
6.24025
6.3653
6.488
6.60789
6.72452
6.83744
6.94621
7.0504
7.14964
7.24355
7.3318
7.41409
7.49015
7.55976
7.62274
7.67893
7.72825
7.77063
7.80605
7.83453
7.85612
7.87089
7.87898
7.8804
7.87606
7.86494
7.84736
7.82341
7.79316
7.7567
7.71412
7.66552
7.61096
7.55056
7.48446
7.41283
7.33585
7.25372
7.16666
7.07514
6.97928
6.8793
6.77553
6.66842
6.55857
6.44561
6.33021
6.21286
6.094
5.97419
5.85391
5.7334
5.61317
5.49379
5.37575
5.25948