/*--------------------------------*- C++ -*----------------------------------*\
| =========                 |                                                 |
| \\      /  F ield         | OpenFOAM: The Open Source CFD Toolbox           |
|  \\    /   O peration     | Version:  2306                                  |
|   \\  /    A nd           | Website:  www.openfoam.com                      |
|    \\/     M anipulation  |                                                 |
\*---------------------------------------------------------------------------*/
FoamFile
{
    version     2.0;
    format      ascii;
    arch        "LSB;label=32;scalar=64";
    class       volVectorField;
    location    "2.4";
    object      flux;
}
// * * * * * * * * * * * * * * * * * * * * * * * * * * * * * * * * * * * * * //

dimensions      [0 1 -1 1 0 0 0];

internalField   nonuniform List<vector> 
5322
(
(-0.00100658 0.00260046 -0.00348828)
(2.28244e-05 0.000244223 -0.00356141)
(2.78737e-05 -1.78497e-05 -0.00367722)
(3.18885e-06 -0.00010934 -0.00398623)
(-5.13286e-07 -6.06455e-05 -0.00395551)
(-6.70256e-07 -2.15642e-05 -0.00394457)
(3.2962e-08 -7.97992e-07 -0.00394161)
(5.41212e-07 1.92585e-05 -0.00394522)
(3.324e-07 5.66348e-05 -0.00395694)
(-8.18642e-07 0.000103441 -0.00398958)
(-4.02847e-06 9.22864e-07 -0.00394422)
(4.40364e-05 -0.000770879 -0.00395547)
(6.78339e-05 -0.000856794 -0.00297681)
(-0.000934259 -0.000769073 -0.00410403)
(-2.47502e-05 -0.000667619 -0.00448761)
(0.00162595 0.00144485 -0.00358226)
(-0.00127764 0.00193261 -0.0042345)
(-2.01609e-05 -2.97576e-06 -0.00317011)
(-0.000974793 0.00133451 -0.00446334)
(0.000628313 -0.00158206 -0.00450399)
(-0.00085425 0.00150461 -0.00453224)
(0.000742907 -0.00152844 -0.00451172)
(-0.000785771 0.00149927 -0.00451364)
(0.000789913 -0.00153433 -0.00453726)
(-0.000800096 0.00152891 -0.00453664)
(0.000768398 -0.00149975 -0.0045114)
(-0.000770036 0.00149819 -0.00451257)
(0.000798627 -0.00152934 -0.00453335)
(-0.00078669 0.00152496 -0.00453456)
(0.000786673 -0.00150616 -0.00451183)
(-0.000746472 0.00151542 -0.00451051)
(0.000847737 -0.0015153 -0.00451876)
(-0.000636874 0.00156459 -0.00448721)
(0.000970256 -0.00134398 -0.00441538)
(1.36941e-05 0.00128919 -0.00419768)
(0.00121734 -0.000644388 -0.00344599)
(0.000858199 0.00126585 -0.00391937)
(-0.000342289 0.00158909 -0.0039946)
(0.000961997 0.000793717 -0.00412339)
(-5.52569e-05 0.000859307 -0.00290367)
(-0.000912391 0.0011728 -0.00383457)
(0.000917484 0.00097952 -0.00395733)
(-5.55497e-05 0.00101385 -0.00285162)
(-0.00097616 0.00109471 -0.00396319)
(0.000970111 0.00104369 -0.00392445)
(-3.3365e-05 0.00103332 -0.00289898)
(-0.00103753 0.00106034 -0.00401809)
(0.000906082 0.00113279 -0.00379282)
(-2.2886e-05 0.00104949 -0.00286035)
(-0.00108742 0.00100229 -0.00392851)
(-0.00107278 0.00125738 -0.00439967)
(-0.00155801 0.000608882 -0.00315738)
(-0.0004866 0.000681541 -0.00429671)
(0.00104493 -0.00224671 -0.00403711)
(-6.66023e-05 -0.00012263 -0.00378544)
(-0.0017255 -0.00130004 -0.00383827)
(-4.8993e-05 0.000683281 -0.00455282)
(0.00164911 -0.00170495 -0.00377881)
(-1.97715e-05 -9.70794e-05 -0.00382508)
(-0.00164787 -0.00148179 -0.00384236)
(-7.09602e-06 0.000693803 -0.00460835)
(0.00160601 -0.00167668 -0.00382973)
(-9.2825e-06 -8.66755e-05 -0.00382665)
(-0.0016186 -0.00147079 -0.0037476)
(-6.0218e-07 0.000696593 -0.0046051)
(0.00158139 -0.00173507 -0.00395845)
(2.00551e-05 -0.000111628 -0.00380839)
(-0.00160296 -0.00142242 -0.00355925)
(6.89627e-05 0.00070306 -0.0044957)
(0.00131262 -0.00190874 -0.00420236)
(5.20558e-05 6.72023e-05 -0.00315446)
(-0.00140142 0.00167746 -0.00491613)
(0.00158785 0.00093436 -0.00468207)
(-0.00164343 0.00130532 -0.00461552)
(0.00158205 0.000975052 -0.00466453)
(-0.00161108 0.00123492 -0.00464184)
(0.00161424 0.00103047 -0.00463945)
(-0.00161085 0.00122948 -0.0046231)
(0.00183379 0.00104394 -0.00468336)
(-0.00132116 0.00144423 -0.00443432)
(0.000647417 0.000131563 -0.00421813)
(-0.000855102 0.000485521 -0.0032422)
(-0.000552896 0.000733856 -0.00336067)
(0.000960142 0.00122165 -0.00454305)
(9.98167e-05 -0.000104046 -0.00309852)
(-0.000544405 -0.000510548 -0.00411939)
(0.000635871 0.000145185 -0.00555888)
(-0.001712 0.000285543 -0.00339535)
(-0.000646269 0.000528757 -0.00348094)
(0.00204076 6.06003e-05 -0.00312829)
(-8.77205e-05 0.000138379 -0.00395609)
(3.82301e-05 2.55647e-05 -0.0035385)
(7.05339e-05 4.03399e-06 -0.00373346)
(0.000318508 4.74658e-06 -0.0037039)
(0.00146391 0.00177814 -0.00449636)
(-0.00034043 -0.000949272 -0.00389338)
(-4.16719e-05 2.85916e-05 -0.00388006)
(-0.000167897 0.000957056 -0.00394926)
(0.000655631 2.5971e-05 -0.00565747)
(-0.0015181 -2.49635e-05 -0.00330454)
(-0.00151972 0.000130495 -0.00333224)
(0.00339628 2.5558e-05 -0.0031794)
(-0.000165055 0.00101333 -0.00397917)
(0.00112913 -0.00173362 -0.00444345)
(0.00183788 0.00155134 -0.00483374)
(-2.29591e-05 2.088e-05 -0.0037655)
(1.10812e-05 -2.96564e-05 -0.00399486)
(1.51698e-05 -5.53253e-06 -0.00400443)
(9.19554e-06 -9.12975e-07 -0.00399184)
(4.50074e-06 1.66145e-06 -0.00399783)
(1.78137e-06 1.89113e-06 -0.00399972)
(-4.90129e-07 2.32257e-06 -0.00399878)
(-4.72932e-06 5.29953e-06 -0.0039946)
(-1.15972e-05 1.0634e-05 -0.00400867)
(1.82355e-05 -1.80416e-05 -0.00461587)
(-6.14975e-06 4.7298e-06 -0.00457113)
(-0.000536838 0.000549523 -0.00319888)
(-0.000529682 -0.000226036 -0.00346639)
(5.6063e-05 -7.76566e-05 -0.00461705)
(0.0003376 -0.000424125 -0.00382042)
(1.91768e-05 0.000521643 -0.0033864)
(0.000515059 -0.000290334 -0.00411887)
(-0.000616074 -0.000565746 -0.00406114)
(-4.61595e-05 -0.000773878 -0.00572145)
(-0.000141889 -0.000874496 -0.00426199)
(0.000955057 -3.52301e-05 -0.00560237)
(0.000785633 0.00064098 -0.0040225)
(0.000218483 -0.000483684 -0.00420028)
(0.000614271 4.5324e-05 -0.00550623)
(0.000397097 0.000528257 -0.00400552)
(0.000301967 -0.000526161 -0.00411089)
(0.000659509 2.21637e-05 -0.00555594)
(0.000332987 0.000549144 -0.00406757)
(0.000357236 -0.00056307 -0.00403433)
(0.000670989 -1.77891e-05 -0.00558133)
(0.000291517 0.000512854 -0.00412509)
(0.000562173 -0.000615214 -0.00405933)
(0.000762737 -4.8988e-05 -0.00573048)
(0.000864637 -0.000141986 -0.00426512)
(3.71422e-05 0.000941867 -0.00560276)
(-0.000633787 0.000780305 -0.00403251)
(3.49446e-05 -0.000511397 -0.00339793)
(0.000422184 0.00033906 -0.00382079)
(-0.000511481 0.000263568 -0.00341787)
(-0.000548748 -0.000539078 -0.00320482)
(7.84376e-05 5.80885e-05 -0.0046176)
(0.000226752 -0.000528196 -0.00346654)
(0.000124768 0.000414316 -0.00344217)
(-0.000429462 0.000425788 -0.00316227)
(-0.00047201 -0.000469494 -0.0031831)
(8.83089e-05 -7.09945e-06 -0.00460845)
(0.000140606 -0.000438113 -0.00344688)
(0.000169458 0.000439726 -0.00343356)
(-0.000465777 0.00047464 -0.00316406)
(-0.000441935 -0.0004264 -0.00319074)
(8.90413e-05 -1.43319e-06 -0.00460726)
(9.24372e-05 -0.00040757 -0.00345379)
(0.000268303 0.000517403 -0.00341625)
(-0.00051122 -3.37514e-05 -0.00339675)
(0.000667015 -2.55244e-05 -0.00448692)
(-0.00143786 0.00162592 -0.003577)
(-0.00192732 -0.00127429 -0.00424004)
(0.00166102 0.00140904 -0.00493045)
(-0.00194509 -0.00149622 -0.00481902)
(-8.14476e-05 5.05799e-05 -0.00305728)
(-0.00133839 -0.000965594 -0.00446419)
(1.07319e-05 -2.0671e-05 -0.0031704)
(0.00130477 -8.83158e-06 -0.00429441)
(-0.000313373 -0.000180716 -0.00294039)
(0.00155513 0.000466509 -0.00397655)
(0.000770906 -0.000933404 -0.00410899)
(0.00114955 0.000928682 -0.00381689)
(-0.00172273 -0.00155891 -0.00395243)
(0.000672242 3.55588e-06 -0.00458754)
(-0.00148438 0.00159226 -0.00377345)
(0.000987493 -0.001573 -0.00464712)
(0.00128745 0.0016377 -0.00461463)
(-0.00157463 -0.00167362 -0.00445658)
(3.5258e-05 6.96128e-06 -0.00372465)
(-0.00133874 0.0016488 -0.00444885)
(0.00117823 -0.00168917 -0.0045535)
(0.00146662 0.001752 -0.0045629)
(-0.00155856 -0.00174659 -0.00452124)
(-9.7256e-06 6.49987e-06 -0.00378277)
(-0.00130629 0.00170781 -0.00452642)
(0.00124317 -0.00171943 -0.00454037)
(0.00151878 0.00177486 -0.00454614)
(-0.00155654 -0.00176743 -0.00453079)
(-3.11619e-06 3.98111e-06 -0.00379612)
(-0.00129886 0.00172626 -0.00453494)
(0.00126515 -0.00173052 -0.00454007)
(0.00153647 0.00178273 -0.00454403)
(-0.00156532 -0.00177507 -0.00453058)
(2.05937e-07 3.34714e-06 -0.00380144)
(-0.00130677 0.00173428 -0.00453637)
(0.00126302 -0.00173978 -0.00454207)
(0.00153945 0.00179178 -0.0045481)
(-0.00158794 -0.00177802 -0.0045249)
(1.73517e-06 4.34918e-06 -0.00380549)
(-0.00132902 0.00173755 -0.00453412)
(0.0012424 -0.00175044 -0.00454619)
(0.00153117 0.00180357 -0.00455643)
(-0.00162266 -0.0017736 -0.00451515)
(4.06994e-06 5.73072e-06 -0.0038078)
(-0.00135731 0.00173075 -0.00452829)
(0.00120245 -0.00175532 -0.00454403)
(0.00150977 0.00180817 -0.00455953)
(-0.00165015 -0.00173693 -0.00450808)
(9.68749e-06 7.37106e-06 -0.00379529)
(-0.00136414 0.00168716 -0.00452675)
(0.00112913 -0.00173689 -0.00446344)
(0.0014096 0.00175138 -0.00447818)
(-0.000307799 -0.000949134 -0.00394039)
(0.000626355 -4.25601e-06 -0.00566064)
(-0.00150691 -6.99196e-05 -0.00330581)
(-0.00153672 2.90857e-05 -0.0032941)
(0.00341716 -2.82096e-05 -0.00319038)
(-0.00011739 -1.73726e-06 -0.00449386)
(-0.000128632 1.11281e-05 -0.00448153)
(7.89157e-05 1.47457e-05 -0.00373377)
(0.000343781 5.83633e-08 -0.0037049)
(0.00145444 0.001782 -0.00448251)
(-0.000268765 -0.00094479 -0.00392429)
(-2.67978e-05 8.00053e-06 -0.0038325)
(-0.000299587 0.0011263 -0.00397423)
(0.000596637 -0.000152975 -0.00564055)
(-0.00153539 -4.49424e-05 -0.00332344)
(-0.00151015 3.71238e-05 -0.00329348)
(0.00339759 -5.54285e-05 -0.00319624)
(-0.000198953 0.000954248 -0.00392605)
(0.00112944 -0.00175482 -0.00446884)
(-4.29409e-05 1.01853e-05 -0.0038786)
(1.86649e-05 7.81729e-06 -0.00392409)
(1.82003e-05 2.19628e-05 -0.0039975)
(1.17122e-05 1.42134e-05 -0.00399113)
(6.09544e-06 7.59045e-06 -0.00399956)
(2.64337e-06 3.41332e-06 -0.00400131)
(-1.65166e-08 2.31942e-07 -0.00399975)
(-4.36885e-06 -4.6957e-06 -0.003995)
(-1.05364e-05 -1.18327e-05 -0.00400852)
(1.81981e-05 1.75911e-05 -0.00461567)
(-5.63606e-06 -6.32975e-06 -0.00457226)
(0.000426595 -0.000442368 -0.00318478)
(-0.000473508 -0.000471173 -0.00317492)
(0.000471846 -0.000471386 -0.00317245)
(-0.000428591 -0.000443394 -0.00318458)
(8.60597e-07 9.05691e-05 -0.0046067)
(0.000429054 0.000156111 -0.0034333)
(-0.000405494 9.84211e-05 -0.00345259)
(-2.2778e-06 -0.000595698 -0.00347373)
(-0.000510752 0.000312464 -0.00410985)
(2.84293e-07 -0.000631718 -0.00577342)
(-0.000429154 0.000156476 -0.00343426)
(-3.31545e-07 9.07488e-05 -0.00460687)
(0.000404445 9.86094e-05 -0.00345153)
(1.59007e-05 -0.000624313 -0.00574104)
(0.000477008 0.000217407 -0.00418775)
(-3.89593e-05 0.000597341 -0.00548773)
(-0.000515743 0.000385627 -0.00400268)
(1.68755e-06 -0.000595464 -0.00347456)
(0.000510039 0.000313107 -0.00410947)
(-5.26778e-07 0.000648449 -0.00548896)
(-8.55875e-08 0.000905417 -0.00293045)
(0.000903422 0.00095632 -0.00393688)
(-0.00155286 -0.0015664 -0.00377578)
(0.00155099 -0.00156285 -0.0037714)
(-0.00153404 -0.00168201 -0.00395363)
(0.00161487 0.00122021 -0.00461125)
(-0.00165211 -0.00151376 -0.00445735)
(0.00172773 0.00138916 -0.00456015)
(-0.00172244 -0.00148737 -0.00452134)
(0.00174985 0.00143857 -0.00454484)
(-0.00174247 -0.0014815 -0.00453032)
(0.0017576 0.00145617 -0.00454368)
(-0.00175013 -0.00148827 -0.00453026)
(0.0017667 0.00145965 -0.0045487)
(-0.00175299 -0.00150964 -0.00452456)
(0.00177884 0.00145311 -0.00455869)
(-0.00174881 -0.00154513 -0.00451378)
(0.00178516 0.0014378 -0.00456464)
(-0.00171411 -0.00157909 -0.00450343)
(0.00175863 0.00140724 -0.00450623)
(-0.000942251 -0.000309902 -0.00388982)
(1.98054e-05 0.000667599 -0.00565816)
(0.000951062 -0.000212455 -0.00396441)
(2.56237e-05 -3.68372e-05 -0.00387864)
(-0.00171563 0.00121832 -0.00445303)
(0.00166827 -0.00145417 -0.00453756)
(8.64765e-06 1.40685e-05 -0.00379725)
(-0.00173404 0.00130377 -0.00454256)
(0.00170895 -0.00145937 -0.00453384)
(5.87364e-06 6.39377e-06 -0.00380954)
(-0.001729 0.00134769 -0.00454811)
(0.00171472 -0.00143393 -0.00453631)
(3.8945e-06 2.91521e-06 -0.00380672)
(-0.00171834 0.00136794 -0.00454481)
(0.00171108 -0.00141132 -0.00453673)
(2.70538e-06 6.39993e-07 -0.00380214)
(-0.00170914 0.00136851 -0.00454291)
(0.00170299 -0.00140166 -0.0045341)
(2.82158e-06 -3.28524e-06 -0.00379639)
(-0.00169838 0.00134527 -0.00454424)
(0.00168488 -0.00140503 -0.0045238)
(4.53379e-06 -1.0446e-05 -0.0037827)
(-0.00166935 0.00127645 -0.00455981)
(0.0016256 -0.00142921 -0.00444408)
(5.15603e-06 3.34193e-05 -0.00372363)
(-0.00155278 0.00106919 -0.00465344)
(9.15058e-07 -9.87399e-05 -0.00381718)
(0.00155225 0.00106825 -0.00464823)
(-0.00162662 -0.00143153 -0.00444908)
(-7.31014e-06 3.34823e-05 -0.00372365)
(-0.00161247 0.00122659 -0.00461595)
(0.00153171 -0.00167232 -0.00395266)
(-2.87844e-06 0.000671184 -0.00458649)
(-0.00091113 0.00110981 -0.0038086)
(-5.92068e-05 0.000829486 -0.00296617)
(0.000926777 0.000776399 -0.00411782)
(-0.00160818 -0.00147534 -0.00358299)
(0.00155272 0.000967817 -0.00466826)
(-0.00163513 -0.00137704 -0.00446642)
(0.0016425 0.00121779 -0.00455145)
(-0.00167193 -0.00134924 -0.00454773)
(0.00166995 0.00129289 -0.00454217)
(-0.00167769 -0.00134524 -0.00454717)
(0.00168193 0.00131693 -0.00454698)
(-0.00167962 -0.00135577 -0.00454274)
(0.00169611 0.00131904 -0.00455458)
(-0.00167908 -0.00138395 -0.00453469)
(0.00171765 0.00130897 -0.00457202)
(-0.00166606 -0.00141777 -0.00450855)
(0.00173891 0.00128649 -0.00459424)
(-0.00160737 -0.00140407 -0.00446098)
(0.00172558 0.00122626 -0.00451755)
(-0.00092852 -0.000202365 -0.00391104)
(-0.000199267 0.000483076 -0.00557564)
(0.000403855 -0.000553337 -0.00412881)
(5.09675e-05 -1.04367e-05 -0.00373711)
(-0.0016016 0.00168094 -0.00479474)
(0.00144161 -0.00205719 -0.0048716)
(2.02161e-05 3.54389e-05 -0.0036744)
(-0.00157844 0.00184729 -0.00488131)
(0.00152579 -0.00201073 -0.00486255)
(2.9038e-06 1.78098e-05 -0.00368847)
(-0.00153083 0.00188199 -0.00487867)
(0.00152468 -0.00193974 -0.00485735)
(-1.8744e-06 6.87646e-06 -0.00368178)
(-0.00151253 0.00188328 -0.00486621)
(0.00151425 -0.00190368 -0.00485526)
(-2.64935e-06 1.63773e-06 -0.00367624)
(-0.00150759 0.00188326 -0.00486373)
(0.00151156 -0.00189313 -0.00485873)
(-7.69851e-06 -3.71908e-06 -0.00367306)
(-0.0015034 0.00188036 -0.00486643)
(0.00151413 -0.00189305 -0.00485836)
(-1.95129e-05 -7.83479e-06 -0.00366557)
(-0.00148294 0.00184921 -0.00488632)
(0.00149433 -0.00190972 -0.0048207)
(-4.50604e-05 4.25677e-05 -0.00361462)
(-0.0013805 0.00164446 -0.00492972)
(0.001264 -0.00190148 -0.0042392)
(2.72503e-05 0.000667205 -0.00448539)
(-0.000458098 0.00155016 -0.00397512)
(0.00077964 0.00137753 -0.00419963)
(0.00128206 -0.000691657 -0.00366404)
(4.08803e-05 0.00131334 -0.00430841)
(0.00015954 -0.000311764 -0.00293204)
(-0.000234378 0.000247483 -0.00334643)
(0.000655942 0.00157365 -0.00380646)
(-0.00202336 -0.00136197 -0.00349431)
(0.00153522 0.00127065 -0.00477716)
(-0.00192514 -0.0011963 -0.0046523)
(-0.00129633 0.00191613 -0.00448191)
(-0.00160282 -0.00168707 -0.00445169)
(4.16103e-05 -1.33629e-05 -0.00371448)
(0.00105548 -0.00188815 -0.00461706)
(0.00116738 0.00161049 -0.00468411)
(-0.00168074 -0.00164759 -0.00363699)
(0.000649993 4.84069e-05 -0.00460605)
(-0.00150838 0.00173463 -0.00404563)
(-0.00011209 7.74359e-05 -0.00384765)
(8.08155e-05 3.36009e-05 -0.0037821)
(-0.000610582 -0.000490907 -0.0055746)
(5.2238e-05 4.81354e-05 -0.00449817)
(-2.46553e-05 -3.94188e-05 -0.00426463)
(-0.000647795 2.57556e-05 -0.00572352)
(6.60735e-05 -9.41139e-06 -0.00410292)
(-0.000104598 -3.36992e-06 -0.00382495)
(-0.00153041 0.0015859 -0.00390638)
(-0.00165982 -0.001589 -0.00379649)
(0.00119751 0.00159012 -0.00465316)
(-0.00155286 -0.00165301 -0.00444399)
(1.99615e-05 2.67903e-07 -0.0037633)
(0.00141673 0.00170532 -0.00456305)
(-0.0015443 -0.00171623 -0.00452375)
(0.0014913 0.00173581 -0.00454666)
(-0.00154548 -0.00173529 -0.00453425)
(1.09741e-05 1.2028e-06 -0.00374094)
(0.00151878 0.00174848 -0.00454663)
(-0.00155686 -0.00174191 -0.00453435)
(0.00152373 0.00176071 -0.00455171)
(-0.00158135 -0.00174239 -0.00452834)
(5.91772e-05 1.41685e-06 -0.00373043)
(0.00151275 0.00177461 -0.00456038)
(-0.00161036 -0.00173208 -0.00451659)
(0.0014821 0.00177912 -0.00456111)
(-0.00161485 -0.00168806 -0.00451107)
(0.000333558 -2.73673e-06 -0.00370891)
(7.80061e-05 2.30096e-06 -0.00373778)
(5.00609e-05 3.80652e-06 -0.0037436)
(5.26706e-05 1.27082e-05 -0.00374395)
(2.53559e-05 7.13577e-06 -0.00375124)
(6.21695e-05 4.61035e-06 -0.00373732)
(0.00156361 0.00179057 -0.00457503)
(-0.00165246 -0.00172955 -0.00451696)
(1.27582e-05 9.13632e-06 -0.00380219)
(-0.0013403 0.00204531 -0.00455586)
(0.00110413 -0.00202029 -0.00451023)
(0.00153931 0.00180976 -0.00458549)
(-0.00162079 -0.001671 -0.00448725)
(2.89761e-05 1.75444e-05 -0.00378247)
(-0.00142303 0.00202966 -0.00457244)
(0.000989149 -0.00192885 -0.00438996)
(0.00197688 0.00122927 -0.00488772)
(-0.000232767 -0.000855222 -0.00375228)
(3.72468e-05 -0.00136588 -0.00552933)
(-0.00164777 -9.27779e-05 -0.00335985)
(-0.00152056 -2.1055e-05 -0.00321486)
(0.00321568 -0.000493729 -0.00326944)
(-0.000199561 -0.000126842 -0.00432605)
(5.35466e-05 3.82835e-05 -0.00351302)
(9.01204e-05 0.000908892 -0.00312712)
(-0.000981559 0.0011864 -0.00456996)
(0.000224651 9.46428e-05 -0.0030611)
(0.000771982 -0.00193323 -0.00440062)
(-0.000798994 0.00146896 -0.0045642)
(6.56787e-05 1.46194e-05 -0.00305765)
(0.000828825 -0.00163998 -0.00449525)
(-0.00075183 0.00149909 -0.0045391)
(1.04257e-05 -3.25045e-06 -0.00305096)
(0.000807037 -0.00154343 -0.00453137)
(-0.000771683 0.00151878 -0.00454126)
(-1.41342e-06 6.89101e-07 -0.00304968)
(0.000771931 -0.0014911 -0.00451847)
(-0.000749143 0.00151376 -0.00451331)
(-1.99702e-05 -1.06663e-05 -0.00305202)
(0.00080359 -0.00149015 -0.00453648)
(-0.00072469 0.00157292 -0.0045132)
(-4.91589e-05 -2.69241e-05 -0.00305767)
(0.000847536 -0.00142124 -0.00452715)
(-0.000570251 0.00160627 -0.00448014)
(-8.22725e-05 -0.000101002 -0.00305543)
(0.00100201 -0.00126804 -0.00448707)
(0.000380484 0.000411592 -0.00343851)
(0.000281399 0.000618835 -0.00331524)
(-7.39959e-05 -0.000763159 -0.00413008)
(-3.85312e-05 6.43115e-06 -0.00360586)
(0.00039446 0.00124661 -0.00401853)
(-0.000173443 -0.00106099 -0.00416716)
(0.00177669 0.00124522 -0.00464637)
(-0.00189821 -0.00121739 -0.00469467)
(0.00185485 0.00123607 -0.00465207)
(-0.00189396 -0.00122302 -0.00467916)
(-0.00122617 0.00198993 -0.00453758)
(-0.00158999 -0.00174427 -0.00454682)
(-3.74573e-06 -4.1157e-06 -0.00378844)
(0.00121368 -0.00199488 -0.00455438)
(0.00153135 0.00173838 -0.00455161)
(-0.001589 -0.00173338 -0.00454142)
(-8.78056e-06 -1.04148e-05 -0.0037776)
(-0.00123122 0.00197232 -0.00452783)
(1.0407e-05 -9.98463e-08 -0.00375497)
(9.18937e-07 -4.43129e-06 -0.00355274)
(1.34205e-05 -2.89981e-06 -0.00356529)
(-1.28476e-06 -0.000114385 -0.00316975)
(2.64116e-05 2.59285e-05 -0.00369585)
(0.000101928 0.000159644 -0.00358759)
(9.43423e-05 0.000173406 -0.00344163)
(0.000171385 7.06148e-05 -0.00401217)
(-5.00421e-05 3.02154e-05 -0.003983)
(2.7111e-05 9.98553e-05 -0.003942)
(0.00071364 7.07236e-05 -0.00397858)
(0.00113393 -9.10687e-05 -0.00308958)
(0.000945704 0.0014744 -0.00503444)
(0.00031965 0.000472666 -0.00278831)
(0.00143783 0.000102772 -0.00374301)
(0.000572339 0.000352838 -0.00397399)
(0.000268337 7.53304e-05 -0.0038836)
(8.00004e-05 2.26511e-05 -0.00389954)
(5.12657e-05 1.57942e-05 -0.00401197)
(-2.31022e-05 5.25374e-06 -0.00395151)
(-1.46764e-05 2.93882e-06 -0.00393897)
(1.47986e-05 4.15607e-06 -0.00401739)
(2.40314e-05 4.05829e-06 -0.00389888)
(-0.000225595 -0.00111925 -0.00416309)
(-3.47387e-06 1.21933e-06 -0.00365949)
(0.000260011 0.00114228 -0.0041193)
(-0.000240077 -0.00112908 -0.00413293)
(0.0018781 0.00123278 -0.00467031)
(-0.0019024 -0.00122618 -0.00466511)
(0.00188909 0.00124473 -0.004682)
(-0.00193936 -0.00122829 -0.00465122)
(-0.00127205 0.00201949 -0.00454545)
(-0.00162884 -0.0017456 -0.004537)
(4.46213e-06 3.26082e-06 -0.00379891)
(0.0012037 -0.00200432 -0.00454873)
(0.0015702 0.00176816 -0.00456053)
(-0.00160273 -0.0017476 -0.00454439)
(5.3708e-07 -2.20869e-07 -0.00379361)
(-0.00123848 0.00200148 -0.00454208)
(1.80357e-05 3.89585e-06 -0.00374476)
(7.98227e-06 4.02721e-06 -0.00355158)
(2.02268e-06 -4.6403e-07 -0.00355121)
(1.39293e-06 -1.15873e-05 -0.00315471)
(3.49148e-06 -5.47715e-06 -0.00368291)
(6.16925e-06 1.74127e-05 -0.00364273)
(9.80397e-06 1.26114e-05 -0.00348743)
(7.89934e-06 2.33788e-06 -0.00368282)
(2.1071e-05 5.39988e-05 -0.00356153)
(3.21027e-05 3.87181e-05 -0.00341957)
(0.000305859 0.00116723 -0.00410866)
(-5.34053e-06 5.68709e-06 -0.00365606)
(-1.98781e-06 -5.37413e-05 -0.00315853)
(-9.82913e-06 -4.66355e-06 -0.00398499)
(1.68772e-06 -7.80907e-05 -0.00400332)
(4.07754e-06 1.00965e-05 -0.00395883)
(-4.03898e-05 0.000775727 -0.00395805)
(9.37422e-05 0.00148128 -0.00373468)
(-0.00108085 0.00272282 -0.00362536)
(-2.70114e-06 0.000285391 -0.00359973)
(1.48564e-05 -4.14184e-05 -0.00316238)
(7.02957e-07 -1.92617e-05 -0.00394127)
(-1.46316e-05 -7.38829e-05 -0.00388989)
(0.00165237 -0.00150417 -0.00445485)
(-2.79743e-07 6.58138e-06 -0.00375761)
(-0.00172699 0.00139961 -0.00456375)
(0.00166917 0.00127384 -0.0045557)
(-0.00168502 -0.00140575 -0.0045275)
(-5.92875e-06 -1.03618e-05 -0.00378335)
(0.00172496 -0.00148189 -0.00452002)
(2.1315e-08 1.09827e-05 -0.00373969)
(-0.0017496 0.00144756 -0.00454689)
(0.00169962 0.00134305 -0.00454224)
(-0.00170179 -0.00140097 -0.00453543)
(-2.46513e-06 -3.13301e-06 -0.0037974)
(0.00174667 -0.00148143 -0.00453138)
(9.97578e-07 9.52569e-06 -0.00373313)
(-0.00175673 0.00146026 -0.00454404)
(0.00171246 0.00136845 -0.00454427)
(-0.00170778 -0.00141006 -0.0045346)
(1.19061e-07 8.89877e-07 -0.00380363)
(0.00175662 -0.00149398 -0.00453418)
(1.89761e-06 2.53273e-05 -0.00372851)
(-0.0017651 0.00145603 -0.00454659)
(0.00172457 0.00137221 -0.00455085)
(-0.00170829 -0.0014336 -0.00452811)
(2.58685e-06 3.41944e-06 -0.00380876)
(0.00176289 -0.00152323 -0.00453314)
(1.57519e-06 7.11321e-05 -0.00372201)
(-0.00177592 0.00143247 -0.00454953)
(0.00173866 0.00136202 -0.0045627)
(-0.00169816 -0.00146507 -0.00451355)
(6.21096e-06 7.24647e-06 -0.00381149)
(0.00176036 -0.00156425 -0.00453113)
(-3.37995e-06 0.000173059 -0.00371209)
(-0.00177796 0.00137829 -0.00453853)
(0.00174482 0.00133999 -0.00456962)
(-0.00165533 -0.00148037 -0.00450095)
(9.85615e-06 1.53872e-05 -0.00379596)
(0.00171526 -0.00157889 -0.00453316)
(-1.51221e-05 0.000385838 -0.00369093)
(-0.0017442 0.00128943 -0.00445169)
(0.00171952 0.00128934 -0.00449443)
(-0.000943624 -0.000248286 -0.00393399)
(-1.14293e-06 -3.58036e-05 -0.00387168)
(0.000937004 -0.000287496 -0.00393462)
(-5.74708e-05 0.00339346 -0.00321005)
(-0.000119551 -0.00151574 -0.00330617)
(-0.000125649 -0.00154765 -0.00317716)
(-0.000131132 0.00250707 -0.00301033)
(-0.00164369 0.000651787 -0.00431358)
(0.000410174 0.000270723 -0.0030732)
(0.000365105 -0.00234075 -0.00414839)
(-0.000139948 -0.000482439 -0.00341129)
(-0.000288445 -0.000282343 -0.0032687)
(-0.000143863 0.00120291 -0.00427127)
(-0.00187766 -0.00125576 -0.00437948)
(0.000395533 -2.19136e-05 -0.00368161)
(-0.00048021 2.61884e-05 -0.0038828)
(-0.000804936 -0.000157223 -0.00388259)
(-0.000295086 -0.000189123 -0.00391357)
(-0.000230931 -1.94199e-05 -0.00399399)
(-0.000241683 5.01641e-05 -0.00391671)
(-0.000102884 2.90542e-05 -0.00392608)
(-4.59747e-05 1.1828e-05 -0.0040205)
(7.58247e-06 -1.54049e-05 -0.00390918)
(-1.84764e-06 6.95482e-06 -0.00401991)
(-3.72393e-05 1.11033e-05 -0.00393275)
(-4.65557e-05 3.2754e-06 -0.00390447)
(-2.72956e-05 3.62526e-07 -0.0039152)
(-5.30095e-05 -3.00332e-06 -0.00393151)
(-0.000105228 -1.03185e-05 -0.00396552)
(1.86188e-05 -1.98215e-05 -0.0039179)
(0.000838062 -6.8728e-05 -0.00392134)
(0.000982679 -3.68207e-05 -0.00298366)
(0.000963654 0.000958823 -0.00407515)
(0.00111029 -0.00095924 -0.00360692)
(0.00137309 1.15283e-05 -0.00375117)
(0.00130726 6.18499e-06 -0.00376872)
(0.00102247 -0.00097431 -0.0038413)
(0.00102921 0.000959987 -0.00396918)
(0.00067149 -2.2727e-06 -0.0045982)
(-0.00059717 3.98971e-06 -0.00346653)
(0.000192758 -4.34144e-06 -0.0042713)
(-7.00707e-05 -7.27199e-05 -0.00421761)
(-4.90755e-05 -4.60837e-05 -0.00426305)
(0.000174955 0.000174077 -0.00432598)
(-0.000520634 1.88686e-05 -0.00338907)
(-1.4197e-06 0.000200325 -0.00425759)
(-8.18497e-07 -7.10555e-05 -0.00427287)
(-1.68241e-06 -8.71258e-05 -0.0042526)
(1.32478e-07 9.67407e-08 -0.00460257)
(-0.00032888 0.000320884 -0.00311019)
(-0.000374685 -0.000372998 -0.00313065)
(-0.000371332 0.000374496 -0.00312512)
(-0.000332907 -0.000319687 -0.00312015)
(0.000330023 -0.000323626 -0.00311013)
(-0.00028015 -0.000276657 -0.00309912)
(1.03993e-05 1.03215e-05 -0.00460947)
(0.00037304 0.000371368 -0.00312012)
(-0.000321904 0.000334204 -0.00311684)
(-0.000323215 -0.000333602 -0.00311793)
(1.03174e-05 -9.94347e-06 -0.00460973)
(0.000371671 -0.000374179 -0.00312532)
(-2.09045e-08 -1.56455e-08 -0.0046291)
(6.0412e-08 5.86605e-08 -0.00463445)
(1.64954e-07 2.37714e-05 -0.00462483)
(1.84314e-07 6.74312e-05 -0.00410306)
(-9.82552e-06 6.0356e-05 -0.00409569)
(1.31686e-05 -0.000133784 -0.00380503)
(-6.73592e-06 2.61851e-06 -0.00375238)
(-3.70691e-06 6.91999e-07 -0.00374221)
(-4.68358e-07 3.9542e-06 -0.00374342)
(2.03915e-06 1.13114e-05 -0.00374374)
(5.0881e-06 2.74378e-05 -0.00374195)
(2.16661e-05 1.18078e-05 -0.00354904)
(1.60235e-05 9.60694e-05 -0.00315445)
(8.74046e-06 -7.54329e-05 -0.00366967)
(3.78788e-05 -8.35357e-06 -0.0036293)
(-1.06358e-05 5.46374e-05 -0.00347058)
(0.000226899 0.00120109 -0.00414121)
(-0.000323752 -0.00109581 -0.00411936)
(0.00191798 0.00126512 -0.00472288)
(-0.00197923 -0.00124643 -0.00457716)
(0.00196955 0.00127817 -0.0048205)
(-4.09879e-05 -3.06789e-05 -0.00369695)
(-0.000578608 -0.00113317 -0.00398411)
(-8.64973e-05 3.30185e-05 -0.00339872)
(0.00015939 0.0012701 -0.00417862)
(-1.7182e-05 -4.64582e-06 -0.00369007)
(-3.83071e-05 -5.55056e-05 -0.00391716)
(-2.01999e-05 1.14181e-05 -0.00399814)
(-0.000110392 7.87555e-06 -0.00389362)
(-0.000231087 1.57013e-05 -0.00388249)
(-0.000460856 1.85998e-05 -0.00388644)
(-0.00105314 -1.33735e-05 -0.00402949)
(-0.00107669 -0.000188049 -0.00397655)
(-0.00268332 0.000644516 -0.00391613)
(-0.00126682 -0.00028748 -0.00371923)
(-0.00110774 -0.00123655 -0.00356289)
(-3.77153e-05 -0.000156673 -0.00359604)
(-0.000436766 -0.00014883 -0.00373934)
(0.000343216 -0.00243564 -0.00295037)
(-0.00216823 -0.000671383 -0.00323078)
(-0.00129557 8.56232e-05 -0.00437043)
(-0.00060594 -0.000982428 -0.0039581)
(0.00098226 0.0007264 -0.00414595)
(7.91314e-05 3.33911e-05 -0.00425038)
(5.1312e-05 4.11674e-05 -0.00281529)
(-0.00102719 0.000879305 -0.00351411)
(0.00108711 0.00073762 -0.00370645)
(6.3906e-06 0.000103406 -0.00437968)
(-0.000128575 -8.24668e-05 -0.00291775)
(-0.00112853 0.000978116 -0.00366087)
(0.00109237 0.000879022 -0.00372696)
(1.90323e-06 0.000111485 -0.0044008)
(-0.00014337 -9.93884e-05 -0.00292949)
(-0.00110134 0.000887541 -0.00361487)
(0.00108873 0.00100247 -0.00377074)
(9.37006e-06 0.000103915 -0.00438445)
(-0.000235012 -0.000229123 -0.00298472)
(-0.00105085 0.000736185 -0.00357145)
(0.000776266 0.00102371 -0.00399159)
(-0.000618393 -0.000354651 -0.00545274)
(0.000506452 0.000533635 -0.00406957)
(0.000383911 -0.000465211 -0.00397104)
(0.00113355 0.000497264 -0.00499269)
(-0.000532636 -0.00196349 -0.00483949)
(-0.000308307 -0.00106645 -0.00394151)
(0.000168428 0.000192878 -0.00298267)
(0.000682531 -0.000484594 -0.0042969)
(-0.00223337 0.00105612 -0.00404019)
(-0.000124402 -6.36617e-05 -0.00378354)
(-0.00130768 -0.00173127 -0.00383028)
(0.00113913 0.000913313 -0.00380039)
(0.00104925 -1.82259e-05 -0.00286164)
(0.00100147 -0.00108461 -0.00392158)
(0.00125724 -0.00107217 -0.00440164)
(0.000608108 -0.00155883 -0.00315647)
(0.000138222 0.000656231 -0.00422094)
(0.000485838 -0.000857356 -0.00324403)
(0.000734762 -0.000548944 -0.00336366)
(0.00121427 0.000953956 -0.00454462)
(-0.000565938 -0.00197945 -0.00431234)
(0.000116695 -0.000221934 -0.00349142)
(0.000901245 0.00139252 -0.00457583)
(-0.000776187 -0.00171464 -0.00444318)
(8.71704e-07 -4.38513e-05 -0.00358624)
(0.000788933 0.00149246 -0.00454916)
(-0.000800113 -0.00157071 -0.00449979)
(-1.00421e-05 3.51475e-06 -0.00359718)
(0.000765681 0.00150479 -0.00453576)
(-0.000782475 -0.00151454 -0.00451597)
(-5.88205e-06 7.84737e-06 -0.00360424)
(0.000761144 0.00149838 -0.00452788)
(-0.000774388 -0.00149974 -0.00452172)
(-5.15949e-06 8.57413e-06 -0.00360243)
(0.000758897 0.00149773 -0.00452705)
(-0.000779483 -0.00149644 -0.00452278)
(-1.09036e-05 2.31296e-05 -0.00360991)
(0.00073341 0.00150589 -0.00451989)
(-0.000822984 -0.00148708 -0.00452592)
(-6.49086e-05 9.21911e-05 -0.00355007)
(0.000622787 0.00155352 -0.00450577)
(-0.000953077 -0.00133256 -0.00446133)
(-0.000354959 0.00037496 -0.00346128)
(-1.53874e-05 0.00129257 -0.00429624)
(-0.00128386 -0.000721783 -0.00364532)
(-0.000794885 0.00137143 -0.00419437)
(0.000463793 0.00154896 -0.0039704)
(-0.00126489 -0.0019208 -0.00423776)
(0.00139943 0.00163909 -0.00493128)
(-0.00148517 -0.00192773 -0.00481784)
(4.17041e-05 4.4291e-05 -0.00361462)
(-0.00155642 0.000964692 -0.00467706)
(0.00160564 -0.00147605 -0.00357558)
(-2.43906e-05 0.000666464 -0.00448736)
(-0.000925835 0.00077266 -0.00411614)
(5.91303e-05 0.000836487 -0.00296677)
(0.000912505 0.00110971 -0.00380377)
(-0.000902671 0.000954408 -0.00393955)
(3.20254e-06 0.000670696 -0.00458756)
(5.33695e-06 0.00129218 -0.00375696)
(1.56711e-06 0.000769531 -0.00394648)
(1.25967e-06 -6.36613e-06 -0.00395151)
(1.94195e-06 -0.000112006 -0.00399244)
(1.79956e-06 -6.26896e-05 -0.00395649)
(5.82221e-07 -3.92573e-05 -0.00396668)
(1.29896e-06 -2.36169e-05 -0.00395249)
(3.47087e-06 -4.61305e-05 -0.00394311)
(5.12563e-06 -2.42915e-05 -0.00368051)
(1.53751e-05 6.99023e-06 -0.00357216)
(2.27914e-06 2.48018e-05 -0.00342842)
(0.000246393 0.0011472 -0.00415585)
(-0.000259112 -0.00111166 -0.00415834)
(-7.49719e-06 4.07035e-08 -0.00366997)
(-1.87597e-06 1.95761e-06 -0.00366092)
(1.04745e-05 4.63205e-07 -0.00390257)
(1.06663e-06 8.73056e-08 -0.00396853)