/*--------------------------------*- C++ -*----------------------------------*\
| =========                 |                                                 |
| \\      /  F ield         | OpenFOAM: The Open Source CFD Toolbox           |
|  \\    /   O peration     | Version:  2306                                  |
|   \\  /    A nd           | Website:  www.openfoam.com                      |
|    \\/     M anipulation  |                                                 |
\*---------------------------------------------------------------------------*/
FoamFile
{
    version     2.0;
    format      ascii;
    arch        "LSB;label=32;scalar=64";
    class       volVectorField;
    location    "2.4";
    object      flux;
}
// * * * * * * * * * * * * * * * * * * * * * * * * * * * * * * * * * * * * * //

dimensions      [0 1 -1 1 0 0 0];

internalField   nonuniform List<vector> 
5322
(
(-2.14304e-06 5.467e-06 -7.27762e-06)
(1.15099e-07 6.46606e-07 -6.70761e-06)
(1.23416e-07 1.57998e-07 -5.74989e-06)
(-5.39092e-10 4.77521e-08 -6.21812e-06)
(-8.48245e-09 1.31444e-07 -4.85543e-06)
(-7.52178e-09 1.60006e-07 -3.6772e-06)
(-5.41321e-09 1.46838e-07 -2.69971e-06)
(-3.90717e-09 1.22197e-07 -1.92912e-06)
(-2.99822e-09 9.88644e-08 -1.35831e-06)
(-2.01368e-09 7.4597e-08 -9.74846e-07)
(-1.20812e-09 2.32724e-08 -7.46822e-07)
(7.76056e-09 -1.33542e-07 -6.7272e-07)
(1.12375e-08 -1.37405e-07 -4.8352e-07)
(-1.53544e-07 -1.25301e-07 -6.80039e-07)
(-2.57841e-09 -1.12165e-07 -7.5343e-07)
(2.83749e-07 2.52319e-07 -6.29922e-07)
(-2.21562e-07 3.33762e-07 -7.3916e-07)
(1.16973e-09 -3.01997e-09 -5.79843e-07)
(-1.79845e-07 2.53815e-07 -8.66638e-07)
(1.53804e-07 -3.55162e-07 -9.88288e-07)
(-2.06137e-07 3.83726e-07 -1.18786e-06)
(2.51422e-07 -4.81728e-07 -1.38642e-06)
(-2.65916e-07 5.44551e-07 -1.69096e-06)
(3.77912e-07 -6.92014e-07 -2.00049e-06)
(-3.91481e-07 7.95306e-07 -2.42512e-06)
(5.2067e-07 -9.57072e-07 -2.81335e-06)
(-5.24751e-07 1.08754e-06 -3.36525e-06)
(7.33647e-07 -1.33809e-06 -3.89108e-06)
(-7.3611e-07 1.50312e-06 -4.57311e-06)
(9.60348e-07 -1.75423e-06 -5.16022e-06)
(-9.12616e-07 1.95691e-06 -5.95526e-06)
(1.31541e-06 -2.26585e-06 -6.66297e-06)
(-9.73236e-07 2.56157e-06 -7.4957e-06)
(1.84439e-06 -2.48623e-06 -8.07969e-06)
(1.49079e-07 2.53745e-06 -8.46873e-06)
(2.69365e-06 -1.43137e-06 -7.42281e-06)
(1.90959e-06 2.87333e-06 -8.75482e-06)
(-7.56915e-07 3.50623e-06 -8.65534e-06)
(2.09872e-06 1.77209e-06 -8.91986e-06)
(-1.24598e-07 1.98652e-06 -6.52473e-06)
(-1.99188e-06 2.59087e-06 -8.26814e-06)
(1.99743e-06 2.17583e-06 -8.535e-06)
(-1.20969e-07 2.32587e-06 -6.3975e-06)
(-2.12387e-06 2.42143e-06 -8.539e-06)
(2.11298e-06 2.30958e-06 -8.45307e-06)
(-7.22705e-08 2.37124e-06 -6.51085e-06)
(-2.25708e-06 2.34651e-06 -8.66365e-06)
(1.98717e-06 2.50817e-06 -8.18952e-06)
(-4.70309e-08 2.41319e-06 -6.44288e-06)
(-2.36938e-06 2.22805e-06 -8.52672e-06)
(-2.35213e-06 2.81183e-06 -9.7358e-06)
(-3.37953e-06 1.2611e-06 -6.61345e-06)
(-1.11621e-06 1.47509e-06 -9.2338e-06)
(2.14391e-06 -4.56517e-06 -8.19072e-06)
(-1.41304e-07 -2.22482e-07 -7.31808e-06)
(-3.50384e-06 -2.62261e-06 -7.7532e-06)
(-1.07399e-07 1.44197e-06 -9.59302e-06)
(3.33078e-06 -3.41685e-06 -7.60529e-06)
(-4.02774e-08 -1.63577e-07 -7.33429e-06)
(-3.33015e-06 -2.96879e-06 -7.73456e-06)
(-1.44671e-08 1.4633e-06 -9.69377e-06)
(3.24409e-06 -3.35778e-06 -7.70733e-06)
(-1.70923e-08 -1.45438e-07 -7.33278e-06)
(-3.27062e-06 -2.9471e-06 -7.54551e-06)
(3.11406e-09 1.46986e-06 -9.69411e-06)
(3.2007e-06 -3.4827e-06 -7.983e-06)
(4.73456e-08 -1.99125e-07 -7.30789e-06)
(-3.23918e-06 -2.859e-06 -7.17718e-06)
(1.68921e-07 1.49089e-06 -9.5094e-06)
(2.67116e-06 -3.88316e-06 -8.52204e-06)
(1.52335e-07 1.17574e-07 -6.08501e-06)
(-2.57011e-06 3.04268e-06 -9.00931e-06)
(2.91857e-06 1.68875e-06 -8.57412e-06)
(-3.00854e-06 2.36747e-06 -8.44665e-06)
(2.89507e-06 1.76094e-06 -8.52735e-06)
(-2.94947e-06 2.23767e-06 -8.48641e-06)
(2.95204e-06 1.8619e-06 -8.48055e-06)
(-2.95336e-06 2.23105e-06 -8.45881e-06)
(3.36422e-06 1.89825e-06 -8.59337e-06)
(-2.46371e-06 2.66066e-06 -8.20097e-06)
(1.16222e-06 1.9938e-07 -7.96689e-06)
(-1.77772e-06 1.02786e-06 -6.43105e-06)
(-1.19711e-06 1.50643e-06 -6.66979e-06)
(1.88005e-06 2.40178e-06 -8.5826e-06)
(1.58576e-07 -1.58261e-07 -5.55413e-06)
(-8.45872e-07 -8.74137e-07 -7.61582e-06)
(1.36052e-06 3.16733e-07 -1.10753e-05)
(-3.75449e-06 6.02207e-07 -7.18417e-06)
(-1.20019e-06 1.27893e-06 -7.20732e-06)
(4.14672e-06 1.83746e-07 -6.25811e-06)
(-1.87707e-07 3.43488e-07 -7.73718e-06)
(4.31475e-08 6.16564e-08 -5.5813e-06)
(7.55683e-08 8.61499e-09 -5.87994e-06)
(4.7501e-07 8.35217e-09 -5.86739e-06)
(2.47737e-06 2.98153e-06 -7.54295e-06)
(-4.99123e-07 -1.70982e-06 -7.20294e-06)
(2.66324e-08 5.55222e-08 -6.84109e-06)
(-1.86284e-07 1.72822e-06 -7.29891e-06)
(1.40014e-06 5.29061e-08 -1.12607e-05)
(-3.31664e-06 -8.68539e-08 -6.97393e-06)
(-3.3101e-06 3.09289e-07 -7.05641e-06)
(6.83519e-06 5.53662e-08 -6.34673e-06)
(-1.87563e-07 1.84666e-06 -7.35703e-06)
(1.91641e-06 -2.89995e-06 -7.46145e-06)
(3.12828e-06 2.60213e-06 -8.14556e-06)
(6.06951e-08 5.97225e-08 -6.65475e-06)
(3.26418e-08 -5.7663e-08 -6.99672e-06)
(2.57786e-08 -7.28202e-09 -6.27485e-06)
(1.2768e-08 1.59898e-09 -4.9123e-06)
(4.29639e-09 5.61157e-09 -3.73107e-06)
(5.50515e-10 5.22309e-09 -2.73976e-06)
(-8.9604e-10 4.05524e-09 -1.95302e-06)
(-1.71946e-09 3.36952e-09 -1.36662e-06)
(-2.38339e-09 3.02649e-09 -9.72514e-07)
(2.1879e-09 -1.70579e-09 -8.5358e-07)
(-1.26918e-09 1.25467e-09 -7.69841e-07)
(-9.1912e-08 9.4233e-08 -5.49936e-07)
(-8.90589e-08 -3.65146e-08 -5.89148e-07)
(1.12014e-08 -1.47002e-08 -8.29281e-07)
(5.56304e-08 -7.01816e-08 -6.45198e-07)
(2.33989e-09 8.7277e-08 -5.6158e-07)
(8.24295e-08 -4.47297e-08 -6.68946e-07)
(-9.89014e-08 -8.93842e-08 -6.59539e-07)
(-7.64678e-09 -1.2405e-07 -9.20928e-07)
(-2.45799e-08 -1.39364e-07 -6.90242e-07)
(1.53811e-07 -5.45445e-09 -9.02517e-07)
(1.25364e-07 1.03549e-07 -6.5339e-07)
(3.34674e-08 -7.7323e-08 -6.82305e-07)
(9.84787e-08 7.47359e-09 -8.87778e-07)
(6.23044e-08 8.49847e-08 -6.5182e-07)
(4.68308e-08 -8.44414e-08 -6.68845e-07)
(1.05811e-07 3.63817e-09 -8.96318e-07)
(5.18405e-08 8.82606e-08 -6.62098e-07)
(5.57684e-08 -9.05487e-08 -6.56694e-07)
(1.07639e-07 -2.95277e-09 -9.00228e-07)
(4.50216e-08 8.22236e-08 -6.7078e-07)
(8.89763e-08 -9.8861e-08 -6.60146e-07)
(1.22455e-07 -8.05459e-09 -9.23901e-07)
(1.38079e-07 -2.45703e-08 -6.9187e-07)
(5.81744e-09 1.51936e-07 -9.04117e-07)
(-1.02475e-07 1.24735e-07 -6.55919e-07)
(4.78438e-09 -8.5283e-08 -5.63953e-07)
(7.01134e-08 5.60383e-08 -6.45986e-07)
(-8.61749e-08 4.34373e-08 -5.81382e-07)
(-9.38867e-08 -9.21773e-08 -5.51255e-07)
(1.50501e-08 1.16806e-08 -8.30102e-07)
(3.68099e-08 -8.88378e-08 -5.89736e-07)
(1.93545e-08 6.93907e-08 -5.86396e-07)
(-7.3377e-08 7.22337e-08 -5.44871e-07)
(-8.08788e-08 -7.98644e-08 -5.48997e-07)
(1.71099e-08 -1.11168e-09 -8.32512e-07)
(2.20219e-08 -7.33052e-08 -5.87247e-07)
(2.71707e-08 7.39552e-08 -5.85091e-07)
(-7.99643e-08 8.11158e-08 -5.45842e-07)
(-7.52719e-08 -7.19044e-08 -5.49229e-07)
(1.7293e-08 -1.93926e-10 -8.3191e-07)
(1.36602e-08 -6.77769e-08 -5.87679e-07)
(4.42425e-08 8.73417e-08 -5.80738e-07)
(-8.52848e-08 -4.45429e-09 -5.63155e-07)
(1.12178e-07 -2.7102e-09 -7.53964e-07)
(-2.51231e-07 2.83985e-07 -6.295e-07)
(-3.33065e-07 -2.21157e-07 -7.40784e-07)
(3.2573e-07 2.72221e-07 -9.59855e-07)
(-4.23364e-07 -3.31906e-07 -1.06586e-06)
(-2.08573e-08 1.39062e-08 -6.26585e-07)
(-2.54867e-07 -1.78234e-07 -8.68089e-07)
(4.54802e-09 1.0344e-09 -5.80543e-07)
(2.33268e-07 8.21423e-09 -7.51202e-07)
(-5.44521e-08 -2.70655e-08 -4.91537e-07)
(2.54939e-07 7.68987e-08 -6.58348e-07)
(1.25725e-07 -1.5352e-07 -6.81429e-07)
(1.88351e-07 1.53221e-07 -6.34447e-07)
(-3.01563e-07 -2.71831e-07 -6.94964e-07)
(1.13433e-07 8.87959e-10 -7.73861e-07)
(-2.60257e-07 2.78269e-07 -6.64731e-07)
(1.94022e-07 -3.06027e-07 -9.09217e-07)
(2.52268e-07 3.18575e-07 -9.01801e-07)
(-3.48601e-07 -3.72296e-07 -9.9487e-07)
(2.17847e-08 1.868e-09 -7.7221e-07)
(-2.96276e-07 3.67465e-07 -9.93955e-07)
(3.09391e-07 -4.4203e-07 -1.19782e-06)
(3.84719e-07 4.58568e-07 -1.19891e-06)
(-4.82544e-07 -5.42134e-07 -1.40694e-06)
(1.8523e-08 2.47719e-09 -1.07692e-06)
(-4.04517e-07 5.3135e-07 -1.40934e-06)
(4.62937e-07 -6.398e-07 -1.69875e-06)
(5.65769e-07 6.61601e-07 -1.69979e-06)
(-6.9017e-07 -7.84884e-07 -2.0169e-06)
(2.87477e-08 2.94714e-09 -1.54556e-06)
(-5.76338e-07 7.69198e-07 -2.01979e-06)
(6.71691e-07 -9.18128e-07 -2.42125e-06)
(8.1651e-07 9.48547e-07 -2.42261e-06)
(-9.82051e-07 -1.11446e-06 -2.85051e-06)
(4.04053e-08 4.15138e-09 -2.1993e-06)
(-8.20607e-07 1.09297e-06 -2.85563e-06)
(9.37899e-07 -1.28913e-06 -3.38069e-06)
(1.14418e-06 1.33181e-06 -3.38453e-06)
(-1.37292e-06 -1.53758e-06 -3.91917e-06)
(5.36876e-08 6.43186e-09 -3.05239e-06)
(-1.14979e-06 1.50764e-06 -3.92891e-06)
(1.25501e-06 -1.75959e-06 -4.58558e-06)
(1.54706e-06 1.81773e-06 -4.59491e-06)
(-1.87302e-06 -2.04787e-06 -5.21819e-06)
(7.08754e-08 9.26893e-09 -4.10564e-06)
(-1.56641e-06 2.00274e-06 -5.23448e-06)
(1.60288e-06 -2.31799e-06 -6.01192e-06)
(2.01049e-06 2.39172e-06 -6.03076e-06)
(-2.45444e-06 -2.58753e-06 -6.71833e-06)
(9.69303e-08 1.29405e-08 -5.31876e-06)
(-2.026e-06 2.51553e-06 -6.74552e-06)
(1.9138e-06 -2.90804e-06 -7.49067e-06)
(2.38454e-06 2.93258e-06 -7.51002e-06)
(-4.42889e-07 -1.71439e-06 -7.28564e-06)
(1.33945e-06 -1.14137e-08 -1.12615e-05)
(-3.28462e-06 -1.82483e-07 -6.97228e-06)
(-3.3498e-06 8.95157e-08 -6.95042e-06)
(6.86715e-06 -5.76765e-08 -6.36687e-06)
(-2.88022e-07 -2.73571e-09 -8.7335e-06)
(-3.08376e-07 1.65349e-08 -8.71294e-06)
(8.75708e-08 2.57889e-08 -5.88034e-06)
(5.15672e-07 1.83622e-09 -5.87404e-06)
(2.46572e-06 2.98515e-06 -7.52694e-06)
(-3.72835e-07 -1.70737e-06 -7.26238e-06)
(5.16629e-08 8.99933e-09 -6.77735e-06)
(-4.40334e-07 2.04937e-06 -7.38051e-06)
(1.28353e-06 -3.10795e-07 -1.12478e-05)
(-3.34081e-06 -1.29354e-07 -7.01675e-06)
(-3.29404e-06 1.11345e-07 -6.94353e-06)
(6.82555e-06 -1.14089e-07 -6.38201e-06)
(-2.4139e-07 1.71806e-06 -7.256e-06)
(1.91556e-06 -2.94007e-06 -7.49845e-06)
(2.37564e-08 1.82846e-08 -6.83636e-06)
(5.24893e-08 1.30998e-08 -6.84419e-06)
(3.07419e-08 3.6728e-08 -6.26329e-06)
(1.67486e-08 2.02477e-08 -4.91389e-06)
(6.66707e-09 8.57734e-09 -3.73569e-06)
(1.69991e-09 2.69897e-09 -2.74328e-06)
(-3.96681e-10 9.70086e-11 -1.95515e-06)
(-1.5202e-09 -1.34274e-09 -1.36777e-06)
(-2.16353e-09 -2.24262e-09 -9.73089e-07)
(2.16591e-09 2.16156e-09 -8.54024e-07)
(-1.2073e-09 -1.24867e-09 -7.70504e-07)
(7.22639e-08 -7.54294e-08 -5.48597e-07)
(-8.05548e-08 -8.06826e-08 -5.47628e-07)
(8.05917e-08 -8.08375e-08 -5.47236e-07)
(-7.227e-08 -7.54726e-08 -5.48256e-07)
(2.79032e-10 1.76868e-08 -8.31833e-07)
(7.21447e-08 2.49319e-08 -5.84985e-07)
(-6.74768e-08 1.47612e-08 -5.87583e-07)
(-1.40203e-10 -9.94622e-08 -5.77998e-07)
(-8.19996e-08 4.86498e-08 -6.68974e-07)
(1.17455e-10 -1.02147e-07 -9.68826e-07)
(-7.18531e-08 2.48814e-08 -5.851e-07)
(1.25629e-10 1.77225e-08 -8.321e-07)
(6.7633e-08 1.49044e-08 -5.87803e-07)
(2.72692e-09 -1.00937e-07 -9.63015e-07)
(7.6437e-08 3.34148e-08 -6.8118e-07)
(-6.36047e-09 9.58603e-08 -8.85887e-07)
(-8.29563e-08 6.05543e-08 -6.51918e-07)
(1.80823e-10 -9.94573e-08 -5.7831e-07)
(8.19986e-08 4.87913e-08 -6.69075e-07)
(-3.39195e-11 1.04101e-07 -8.8605e-07)
(5.50617e-11 1.45649e-07 -4.77257e-07)
(1.49228e-07 1.56497e-07 -6.54777e-07)
(-2.71021e-07 -2.74384e-07 -6.6513e-07)
(2.71075e-07 -2.7393e-07 -6.64397e-07)
(-2.67494e-07 -2.94341e-07 -6.95318e-07)
(3.14301e-07 2.39433e-07 -9.01622e-07)
(-3.67577e-07 -3.34961e-07 -9.9526e-07)
(4.52466e-07 3.64874e-07 -1.19906e-06)
(-5.3485e-07 -4.6039e-07 -1.4073e-06)
(6.52557e-07 5.36499e-07 -1.7005e-06)
(-7.74161e-07 -6.56784e-07 -2.01709e-06)
(9.35506e-07 7.7464e-07 -2.42399e-06)
(-1.09926e-06 -9.33538e-07 -2.85078e-06)
(1.31365e-06 1.08596e-06 -3.38697e-06)
(-1.5164e-06 -1.30492e-06 -3.91935e-06)
(1.79351e-06 1.46964e-06 -4.59959e-06)
(-2.01953e-06 -1.7831e-06 -5.2169e-06)
(2.36224e-06 1.9164e-06 -6.04003e-06)
(-2.55351e-06 -2.34825e-06 -6.71133e-06)
(2.9497e-06 2.38256e-06 -7.562e-06)
(-1.69737e-06 -4.44277e-07 -7.19751e-06)
(4.19068e-08 1.42422e-06 -1.12656e-05)
(1.71978e-06 -2.68674e-07 -7.33056e-06)
(4.96112e-08 3.41845e-08 -6.83989e-06)
(-2.87259e-06 2.06305e-06 -7.47438e-06)
(2.48859e-06 -2.16133e-06 -6.76401e-06)
(1.47035e-08 1.03365e-07 -5.32275e-06)
(-2.2904e-06 1.73732e-06 -6.01182e-06)
(1.9782e-06 -1.68516e-06 -5.24293e-06)
(9.13449e-09 7.3972e-08 -4.1087e-06)
(-1.73882e-06 1.36165e-06 -4.58922e-06)
(1.48814e-06 -1.2412e-06 -3.93225e-06)
(5.6557e-09 5.51767e-08 -3.05432e-06)
(-1.27398e-06 1.01635e-06 -3.38405e-06)
(1.07847e-06 -8.86759e-07 -2.85683e-06)
(3.40659e-09 4.10682e-08 -2.20039e-06)
(-9.07346e-07 7.27055e-07 -2.42369e-06)
(7.58914e-07 -6.22376e-07 -2.02006e-06)
(2.22068e-09 2.89776e-08 -1.54614e-06)
(-6.32329e-07 5.0131e-07 -1.70079e-06)
(5.24307e-07 -4.35417e-07 -1.40894e-06)
(1.79226e-09 1.85624e-08 -1.0772e-06)
(-4.37003e-07 3.3538e-07 -1.19979e-06)
(3.62382e-07 -3.1651e-07 -9.93102e-07)
(1.43027e-09 2.16188e-08 -7.72171e-07)
(-3.02109e-07 2.10118e-07 -9.10582e-07)
(3.72366e-10 -1.99827e-08 -7.04936e-07)
(3.02629e-07 2.10054e-07 -9.09896e-07)
(-3.61656e-07 -3.16634e-07 -9.93893e-07)
(-1.2459e-09 2.16372e-08 -7.72304e-07)
(-3.13308e-07 2.40527e-07 -9.02421e-07)
(2.67555e-07 -2.92891e-07 -6.95452e-07)
(-5.49774e-10 1.13447e-07 -7.74191e-07)
(-1.50321e-07 1.8199e-07 -6.33587e-07)
(-9.74999e-09 1.33253e-07 -4.8279e-07)
(1.52697e-07 1.26814e-07 -6.83692e-07)
(-2.80725e-07 -2.57725e-07 -6.30969e-07)
(3.01909e-07 1.90373e-07 -9.12351e-07)
(-3.62397e-07 -3.02288e-07 -9.94775e-07)
(4.30764e-07 3.20849e-07 -1.1974e-06)
(-5.17174e-07 -4.14089e-07 -1.41233e-06)
(6.24119e-07 4.84462e-07 -1.70164e-06)
(-7.43921e-07 -5.92465e-07 -2.02224e-06)
(8.97583e-07 7.04644e-07 -2.43037e-06)
(-1.05389e-06 -8.46243e-07 -2.85773e-06)
(1.26536e-06 9.87949e-07 -3.39987e-06)
(-1.45122e-06 -1.19194e-06 -3.9296e-06)
(1.73967e-06 1.33533e-06 -4.62838e-06)
(-1.92303e-06 -1.63265e-06 -5.2164e-06)
(2.31321e-06 1.73443e-06 -6.10379e-06)
(-2.39651e-06 -2.08582e-06 -6.65692e-06)
(2.90156e-06 2.09324e-06 -7.60333e-06)
(-1.67704e-06 -2.54866e-07 -7.2451e-06)
(-4.0589e-07 1.06127e-06 -1.11361e-05)
(7.08058e-07 -8.83849e-07 -7.69618e-06)
(8.00827e-08 7.87708e-08 -6.62755e-06)
(-2.70102e-06 2.89116e-06 -8.14965e-06)
(2.17779e-06 -3.0458e-06 -7.31364e-06)
(1.93347e-08 1.35821e-07 -5.17154e-06)
(-2.09199e-06 2.50707e-06 -6.52213e-06)
(1.78202e-06 -2.30091e-06 -5.63361e-06)
(-6.16061e-09 8.80403e-08 -3.98791e-06)
(-1.53951e-06 1.93601e-06 -4.95274e-06)
(1.33003e-06 -1.65657e-06 -4.20426e-06)
(-1.06428e-08 5.94759e-08 -2.95795e-06)
(-1.11933e-06 1.42464e-06 -3.63912e-06)
(9.57158e-07 -1.17655e-06 -3.04728e-06)
(-9.35908e-09 4.2433e-08 -2.12864e-06)
(-7.97753e-07 1.01886e-06 -2.60324e-06)
(6.74326e-07 -8.24735e-07 -2.15346e-06)
(-9.01851e-09 2.92656e-08 -1.49513e-06)
(-5.56616e-07 7.12087e-07 -1.82335e-06)
(4.7079e-07 -5.74722e-07 -1.50146e-06)
(-9.36552e-09 1.93363e-08 -1.04179e-06)
(-3.85043e-07 4.90695e-07 -1.28265e-06)
(3.31898e-07 -4.15422e-07 -1.06609e-06)
(-1.15396e-08 2.33099e-08 -7.46581e-07)
(-2.66461e-07 3.22617e-07 -9.59715e-07)
(2.1972e-07 -3.28721e-07 -7.4114e-07)
(3.17172e-09 1.12408e-07 -7.54566e-07)
(-7.55002e-08 2.54474e-07 -6.58916e-07)
(1.26648e-07 2.23803e-07 -6.84769e-07)
(2.09319e-07 -1.12035e-07 -6.07929e-07)
(-2.1314e-09 2.34399e-07 -7.5318e-07)
(2.37103e-08 -5.41938e-08 -4.90587e-07)
(-3.85428e-08 3.63805e-08 -5.60605e-07)
(1.13695e-07 2.71049e-07 -6.64655e-07)
(-3.51335e-07 -2.36427e-07 -6.16174e-07)
(2.97571e-07 2.44201e-07 -9.30088e-07)
(-4.23415e-07 -2.64591e-07 -1.03207e-06)
(-2.85238e-07 4.24907e-07 -9.97249e-07)
(-3.54653e-07 -3.75122e-07 -9.93734e-07)
(2.31933e-08 -3.31801e-09 -7.68486e-07)
(2.05995e-07 -3.66542e-07 -9.00954e-07)
(2.29067e-07 3.13553e-07 -9.16129e-07)
(-2.94787e-07 -2.88072e-07 -6.4107e-07)
(1.0918e-07 7.45824e-09 -7.75434e-07)
(-2.62353e-07 3.01182e-07 -7.09705e-07)
(-2.27349e-08 1.2723e-08 -7.07723e-07)
(1.08815e-08 3.22049e-09 -6.92053e-07)
(-1.00931e-07 -8.11983e-08 -9.30875e-07)
(8.28823e-09 7.67141e-09 -7.29101e-07)
(-4.18555e-09 -6.43479e-09 -6.92246e-07)
(-1.0506e-07 4.31061e-09 -9.60393e-07)
(4.53115e-09 -1.95533e-09 -7.52458e-07)
(-2.17022e-08 -8.161e-10 -7.06049e-07)
(-2.68408e-07 2.77128e-07 -6.88032e-07)
(-2.91167e-07 -2.77547e-07 -6.69009e-07)
(2.35127e-07 3.09962e-07 -9.10733e-07)
(-3.44392e-07 -3.67855e-07 -9.93417e-07)
(-7.83489e-09 4.50969e-10 -9.08203e-07)
(3.72171e-07 4.47589e-07 -1.20062e-06)
(-4.78762e-07 -5.32555e-07 -1.40911e-06)
(5.55865e-07 6.48357e-07 -1.70158e-06)
(-6.86087e-07 -7.70526e-07 -2.02004e-06)
(-2.75604e-08 2.05581e-09 -1.82195e-06)
(8.07388e-07 9.31752e-07 -2.42568e-06)
(-9.7783e-07 -1.09354e-06 -2.85494e-06)
(1.13312e-06 1.31071e-06 -3.38948e-06)
(-1.36848e-06 -1.50633e-06 -3.92471e-06)
(3.62587e-09 4.17206e-09 -3.49171e-06)
(1.52985e-06 1.79133e-06 -4.60186e-06)
(-1.85996e-06 -1.99904e-06 -5.22228e-06)
(1.97531e-06 2.3553e-06 -6.03509e-06)
(-2.40249e-06 -2.51496e-06 -6.72415e-06)
(4.97371e-07 -4.17071e-09 -5.87622e-06)
(8.64046e-08 4.47582e-09 -5.88218e-06)
(2.5353e-08 7.14025e-09 -4.61915e-06)
(3.02517e-08 2.04051e-08 -4.6237e-06)
(-1.10824e-08 1.05485e-08 -3.51091e-06)
(7.33401e-09 1.05093e-08 -3.50184e-06)
(1.58592e-06 1.80989e-06 -4.62475e-06)
(-1.90925e-06 -1.99817e-06 -5.22747e-06)
(8.31172e-08 9.30835e-09 -4.10904e-06)
(-1.54888e-06 2.37314e-06 -5.28184e-06)
(1.48714e-06 -2.68686e-06 -5.99774e-06)
(2.06094e-06 2.40152e-06 -6.08042e-06)
(-2.41174e-06 -2.49121e-06 -6.69226e-06)
(1.27982e-07 2.36196e-08 -5.31628e-06)
(-2.12048e-06 3.0395e-06 -6.84263e-06)
(1.69215e-06 -3.25494e-06 -7.40617e-06)
(3.39638e-06 2.08958e-06 -8.34623e-06)
(-2.9951e-07 -1.56791e-06 -7.05381e-06)
(1.54924e-07 -2.85891e-06 -1.12768e-05)
(-3.60056e-06 -2.17901e-07 -7.17369e-06)
(-3.3441e-06 -5.44882e-09 -6.80961e-06)
(6.5195e-06 -1.02694e-06 -6.58579e-06)
(-4.38474e-07 -2.75366e-07 -8.51177e-06)
(6.95083e-08 4.58362e-08 -5.57501e-06)
(1.24862e-07 1.53576e-06 -5.05498e-06)
(-1.60393e-06 1.89894e-06 -7.02029e-06)
(3.2039e-07 1.2613e-07 -4.3823e-06)
(9.6951e-07 -2.60259e-06 -5.99403e-06)
(-1.00725e-06 1.76759e-06 -5.32777e-06)
(6.7991e-08 -1.78709e-09 -3.32458e-06)
(7.90458e-07 -1.64727e-06 -4.5979e-06)
(-7.05953e-07 1.33237e-06 -3.93111e-06)
(3.20271e-09 -2.05709e-08 -2.45364e-06)
(5.61031e-07 -1.13178e-06 -3.40056e-06)
(-5.22585e-07 9.73768e-07 -2.84547e-06)
(-6.02863e-09 -1.45129e-08 -1.76523e-06)
(3.76593e-07 -7.76945e-07 -2.42378e-06)
(-3.6191e-07 6.84923e-07 -1.99322e-06)
(-1.2623e-08 -1.55097e-08 -1.23906e-06)
(2.74416e-07 -5.41626e-07 -1.69973e-06)
(-2.44783e-07 4.94091e-07 -1.38546e-06)
(-1.7524e-08 -1.51106e-08 -8.64232e-07)
(2.037e-07 -3.60745e-07 -1.18445e-06)
(-1.41065e-07 3.5967e-07 -9.81253e-07)
(-2.02478e-08 -2.48604e-08 -6.25041e-07)
(1.85734e-07 -2.409e-07 -8.70122e-07)
(6.62759e-08 6.50582e-08 -6.26853e-07)
(4.73261e-08 1.04318e-07 -6.02854e-07)
(-9.57702e-09 -1.5226e-07 -7.99699e-07)
(-4.80456e-09 -6.00241e-09 -7.39112e-07)
(9.03081e-08 2.66199e-07 -8.81858e-07)
(-3.82168e-08 -2.83101e-07 -1.08681e-06)
(4.63236e-07 3.23013e-07 -1.21683e-06)
(-5.84103e-07 -3.77293e-07 -1.45465e-06)
(6.90391e-07 4.58968e-07 -1.73829e-06)
(-8.36971e-07 -5.44107e-07 -2.07983e-06)
(-5.41059e-07 8.8335e-07 -2.01791e-06)
(-7.04951e-07 -7.75189e-07 -2.02473e-06)
(2.92122e-08 -3.22571e-09 -1.54253e-06)
(4.53562e-07 -7.44154e-07 -1.70477e-06)
(5.70985e-07 6.48681e-07 -1.70378e-06)
(-4.91501e-07 -5.37744e-07 -1.41298e-06)
(1.90435e-08 -3.8922e-09 -1.0745e-06)
(-3.78903e-07 6.10849e-07 -1.40577e-06)
(-1.28609e-08 2.27262e-09 -1.27553e-06)
(-6.61312e-09 -8.34279e-09 -1.21623e-06)
(-1.0928e-09 -4.83822e-09 -8.62901e-07)
(-6.84731e-09 -2.24056e-08 -7.58836e-07)
(-9.34917e-09 -3.46632e-08 -9.01095e-07)
(2.16474e-08 1.3462e-08 -8.54717e-07)
(1.57735e-08 2.3787e-08 -8.17796e-07)
(1.04771e-08 7.13628e-09 -9.63784e-07)
(-6.42801e-08 1.33932e-08 -9.70669e-07)
(-1.80832e-08 1.99359e-08 -7.45709e-07)
(1.22386e-07 1.13845e-08 -6.75646e-07)
(1.82244e-07 -1.50102e-08 -5.0178e-07)
(1.54072e-07 2.41346e-07 -8.3151e-07)
(5.35324e-08 7.70263e-08 -4.65589e-07)
(2.50333e-07 1.50084e-08 -6.54102e-07)
(9.37119e-08 5.97463e-08 -7.36813e-07)
(7.02423e-08 3.26231e-09 -8.1683e-07)
(4.91619e-08 -1.40011e-08 -1.11904e-06)
(-3.20712e-08 -9.43831e-09 -1.36279e-06)
(-9.32782e-08 1.28138e-08 -1.35452e-06)
(-1.29543e-07 1.74826e-08 -1.93038e-06)
(-6.24547e-08 -1.64857e-08 -1.95772e-06)
(4.97745e-08 -2.78251e-08 -1.5992e-06)
(-7.48983e-08 -4.24741e-07 -1.55525e-06)
(7.56968e-09 -1.56155e-08 -1.48706e-06)
(1.28451e-07 4.91292e-07 -1.82487e-06)
(-1.15121e-07 -6.15407e-07 -2.21051e-06)
(1.00044e-06 6.5525e-07 -2.49392e-06)
(-1.19197e-06 -7.72041e-07 -2.93674e-06)
(1.40975e-06 9.2613e-07 -3.49601e-06)
(-1.67872e-06 -1.06635e-06 -4.03925e-06)
(-1.09873e-06 1.75212e-06 -3.94282e-06)
(-1.40949e-06 -1.51099e-06 -3.93437e-06)
(5.77114e-08 1.08948e-09 -3.05169e-06)
(8.997e-07 -1.49211e-06 -3.39474e-06)
(1.16976e-06 1.3166e-06 -3.4001e-06)
(-1.00606e-06 -1.09851e-06 -2.86155e-06)
(4.18374e-08 -1.9987e-09 -2.19667e-06)
(-7.74632e-07 1.2586e-06 -2.85838e-06)
(-1.79097e-08 7.69312e-09 -2.56674e-06)
(-6.31159e-09 -9.38953e-09 -2.4417e-06)
(-8.68104e-09 -9.95372e-09 -1.73825e-06)
(-1.23779e-08 4.98815e-09 -1.53619e-06)
(-3.08046e-08 -9.7606e-08 -1.80874e-06)
(1.06161e-10 -4.51661e-08 -1.77314e-06)
(-7.2029e-09 -3.1966e-08 -1.69439e-06)
(-2.13509e-08 -6.5895e-08 -1.26454e-06)
(3.07927e-09 -2.08904e-08 -1.20647e-06)
(6.42048e-10 -1.51392e-08 -1.15571e-06)
(1.02556e-07 3.49388e-07 -1.26462e-06)
(4.45963e-09 -9.49387e-09 -1.03446e-06)
(-1.01593e-08 -1.07275e-08 -1.07219e-06)
(-1.947e-09 3.25346e-08 -1.14606e-06)
(2.78838e-09 -6.84502e-08 -9.78689e-07)
(1.50973e-09 -2.0739e-08 -7.50487e-07)
(-7.04748e-09 1.34799e-07 -6.7435e-07)
(1.56951e-08 2.53624e-07 -6.51136e-07)
(-1.80401e-07 4.61541e-07 -6.18509e-07)
(-6.63154e-09 3.50217e-08 -6.8222e-07)
(-1.90159e-09 -4.76591e-09 -5.78913e-07)
(-7.42262e-10 1.60348e-08 -8.30882e-07)
(-2.39842e-09 1.70888e-09 -8.24726e-07)
(3.68577e-07 -3.3314e-07 -9.95126e-07)
(1.33447e-09 -9.76401e-09 -9.05693e-07)
(-4.51137e-07 3.67263e-07 -1.19966e-06)
(4.38235e-07 3.34985e-07 -1.1993e-06)
(-5.22559e-07 -4.3495e-07 -1.40947e-06)
(-9.22393e-10 1.86258e-08 -1.07759e-06)
(5.37427e-07 -4.59261e-07 -1.40778e-06)
(2.59969e-09 -1.69057e-08 -1.27316e-06)
(-6.50513e-07 5.39334e-07 -1.70096e-06)
(6.35145e-07 5.01168e-07 -1.70115e-06)
(-7.55445e-07 -6.2107e-07 -2.01978e-06)
(1.56428e-10 2.91534e-08 -1.54704e-06)
(7.79252e-07 -6.57873e-07 -2.01959e-06)
(4.11478e-09 -2.50489e-08 -1.81876e-06)
(-9.32045e-07 7.76237e-07 -2.42432e-06)
(9.13082e-07 7.28393e-07 -2.42641e-06)
(-1.07204e-06 -8.84718e-07 -2.8544e-06)
(1.79783e-09 4.14433e-08 -2.20227e-06)
(1.10868e-06 -9.39164e-07 -2.85721e-06)
(6.37795e-09 -2.13681e-08 -2.55518e-06)
(-1.30827e-06 1.08286e-06 -3.38652e-06)
(1.28466e-06 1.02194e-06 -3.3918e-06)
(-1.47692e-06 -1.23967e-06 -3.92408e-06)
(4.66381e-09 5.60402e-08 -3.05773e-06)
(1.53285e-06 -1.31994e-06 -3.93355e-06)
(8.59677e-09 2.05251e-08 -3.48902e-06)
(-1.78563e-06 1.44917e-06 -4.59334e-06)
(1.75645e-06 1.37994e-06 -4.6085e-06)
(-1.96014e-06 -1.69127e-06 -5.21886e-06)
(9.98734e-09 7.57536e-08 -4.11341e-06)
(2.04248e-06 -1.80925e-06 -5.24665e-06)
(4.29459e-09 1.68555e-07 -4.61092e-06)
(-2.34844e-06 1.83902e-06 -6.01068e-06)
(2.31216e-06 1.79e-06 -6.05214e-06)
(-2.46634e-06 -2.20167e-06 -6.70957e-06)
(1.60838e-08 1.06213e-07 -5.32358e-06)
(2.56291e-06 -2.35062e-06 -6.76473e-06)
(-2.00969e-08 5.92587e-07 -5.8593e-06)
(-2.92271e-06 2.18518e-06 -7.47404e-06)
(2.88176e-06 2.18493e-06 -7.54419e-06)
(-1.70516e-06 -3.3557e-07 -7.27734e-06)
(-3.61163e-09 3.56873e-08 -6.82787e-06)
(1.69123e-06 -4.03731e-07 -7.28054e-06)
(-1.16649e-07 6.82976e-06 -6.41658e-06)
(-2.7107e-07 -3.30015e-06 -6.98854e-06)
(-2.24111e-07 -3.40355e-06 -6.73588e-06)
(-3.22557e-07 5.09327e-06 -6.12459e-06)
(-3.32402e-06 1.34124e-06 -8.4378e-06)
(7.16191e-07 4.8592e-07 -5.62118e-06)
(4.99008e-07 -4.09504e-06 -7.30903e-06)
(-2.60661e-07 -9.41464e-07 -5.60669e-06)
(-5.25708e-07 -5.6879e-07 -5.36648e-06)
(-1.87089e-07 1.81258e-06 -6.58573e-06)
(-2.82758e-06 -1.89995e-06 -6.60892e-06)
(6.37353e-07 -3.60444e-08 -5.8976e-06)
(-1.07074e-06 7.63526e-08 -6.29927e-06)
(-1.49083e-06 -3.3392e-07 -6.3491e-06)
(-3.25833e-07 -3.81049e-07 -5.67807e-06)
(-4.50287e-07 -7.4306e-08 -5.04818e-06)
(-5.73446e-07 1.02824e-07 -4.94675e-06)
(-3.1049e-07 5.75059e-08 -3.71746e-06)
(-1.644e-07 -2.0171e-08 -3.7957e-06)
(7.80201e-08 -6.44602e-08 -3.17368e-06)
(-9.35393e-08 -2.04142e-08 -2.76189e-06)
(-1.89731e-07 2.96026e-08 -2.7133e-06)
(-1.78399e-07 8.30831e-09 -2.6934e-06)
(-1.21769e-07 4.37261e-09 -1.92101e-06)
(-9.29052e-08 1.85791e-09 -1.35225e-06)
(-7.16745e-08 -8.31102e-10 -9.71198e-07)
(-1.89679e-08 -3.28291e-09 -7.43608e-07)
(1.44948e-07 -1.22772e-08 -6.68726e-07)
(1.58047e-07 -6.16137e-09 -4.85386e-07)
(1.57465e-07 1.58126e-07 -6.76798e-07)
(1.81232e-07 -1.58136e-07 -5.98573e-07)
(2.34575e-07 1.63284e-09 -6.54537e-07)
(2.23707e-07 1.1112e-09 -6.58663e-07)
(1.67333e-07 -1.60885e-07 -6.38956e-07)
(1.68504e-07 1.585e-07 -6.60112e-07)
(1.13289e-07 -3.69138e-10 -7.76064e-07)
(-9.99528e-08 6.3736e-10 -5.7701e-07)
(3.17862e-08 -6.50908e-10 -7.09176e-07)
(-1.15057e-08 -1.19118e-08 -6.87066e-07)
(-8.01725e-09 -7.55414e-09 -6.92262e-07)
(2.88663e-08 2.87545e-08 -7.15685e-07)
(-8.71047e-08 2.34081e-09 -5.62631e-07)
(-1.92599e-10 3.30619e-08 -7.06862e-07)
(-9.09025e-11 -1.16275e-08 -6.93941e-07)
(-2.19043e-10 -1.43254e-08 -6.93027e-07)
(1.30363e-10 -2.60359e-10 -7.76433e-07)
(-5.53999e-08 5.39765e-08 -5.37572e-07)
(-6.35525e-08 -6.32503e-08 -5.41881e-07)
(-6.31359e-08 6.38693e-08 -5.40997e-07)
(-5.59275e-08 -5.33946e-08 -5.38893e-07)
(5.57477e-08 -5.41975e-08 -5.37281e-07)
(-4.62879e-08 -4.57131e-08 -5.34292e-07)
(1.98449e-09 1.98006e-09 -8.38292e-07)
(6.37226e-08 6.34537e-08 -5.40191e-07)
(-5.39013e-08 5.64619e-08 -5.38427e-07)
(-5.39848e-08 -5.60284e-08 -5.38572e-07)
(2.00444e-09 -1.57188e-09 -8.38553e-07)
(6.33606e-08 -6.35784e-08 -5.41027e-07)
(1.04488e-10 1.2352e-10 -7.82008e-07)
(2.33629e-10 2.70587e-10 -8.61726e-07)
(2.6269e-10 2.99883e-09 -8.57575e-07)
(2.38794e-10 4.7715e-09 -7.5306e-07)
(-2.23051e-09 3.84219e-09 -7.50793e-07)
(2.01313e-09 -2.60194e-08 -7.01838e-07)
(-9.35136e-10 -8.57222e-09 -9.09243e-07)
(-4.08006e-10 -1.55533e-08 -1.28145e-06)
(8.31426e-10 -2.06877e-08 -1.83134e-06)
(3.15372e-09 -2.09923e-08 -2.57024e-06)
(7.63283e-09 -7.08661e-09 -3.50285e-06)
(7.62299e-09 -2.74025e-09 -3.33135e-06)
(-4.49293e-09 1.1263e-07 -2.96358e-06)
(-4.46494e-08 -2.38274e-07 -3.48143e-06)
(3.01143e-08 -9.84827e-08 -3.41512e-06)
(-3.01332e-08 -1.41709e-08 -3.26256e-06)
(2.17598e-07 1.02267e-06 -3.59613e-06)
(-3.05666e-07 -1.13924e-06 -4.20266e-06)
(1.95081e-06 1.27936e-06 -4.7946e-06)
(-2.29902e-06 -1.45118e-06 -5.3266e-06)
(2.65501e-06 1.70332e-06 -6.45802e-06)
(-2.98594e-08 -7.01679e-08 -5.30256e-06)
(-7.5956e-07 -1.57829e-06 -5.41692e-06)
(-1.40104e-07 -4.67266e-08 -4.27741e-06)
(2.10852e-07 1.46307e-06 -4.89091e-06)
(2.50529e-09 -3.38926e-08 -4.01701e-06)
(4.87257e-08 -1.33162e-07 -4.31237e-06)
(8.47993e-08 2.23825e-08 -4.38297e-06)
(-2.92851e-07 1.60198e-08 -3.67906e-06)
(-5.22137e-07 3.06072e-08 -4.87334e-06)
(-1.00393e-06 3.56819e-08 -6.25205e-06)
(-2.31849e-06 -3.10792e-08 -7.88916e-06)
(-2.38489e-06 -3.82784e-07 -7.85565e-06)
(-5.50383e-06 1.3147e-06 -7.87583e-06)
(-2.28291e-06 -6.24024e-07 -6.78046e-06)
(-1.95443e-06 -2.24281e-06 -6.27702e-06)
(-3.92102e-08 -3.3865e-07 -6.58998e-06)
(-7.5805e-07 -3.99444e-07 -7.2634e-06)
(6.87176e-07 -5.14781e-06 -6.10812e-06)
(-4.78534e-06 -1.45221e-06 -6.94784e-06)
(-2.91072e-06 1.8823e-07 -9.97522e-06)
(-1.40723e-06 -2.16129e-06 -9.00532e-06)
(2.10173e-06 1.56582e-06 -8.8422e-06)
(1.68024e-07 7.73828e-08 -9.13567e-06)
(9.20659e-08 7.19946e-08 -5.84071e-06)
(-2.15665e-06 1.89262e-06 -7.42251e-06)
(2.27206e-06 1.5843e-06 -7.78922e-06)
(1.48381e-08 2.05417e-07 -9.34411e-06)
(-2.80294e-07 -1.82403e-07 -6.01146e-06)
(-2.35519e-06 2.08413e-06 -7.68196e-06)
(2.2803e-06 1.87481e-06 -7.82269e-06)
(4.5751e-09 2.18238e-07 -9.38871e-06)
(-3.09869e-07 -2.17692e-07 -6.03722e-06)
(-2.29923e-06 1.89582e-06 -7.58631e-06)
(2.27376e-06 2.1339e-06 -7.92212e-06)
(1.879e-08 2.03716e-07 -9.3691e-06)
(-4.98713e-07 -4.89174e-07 -6.1802e-06)
(-2.19458e-06 1.58011e-06 -7.52167e-06)
(1.6229e-06 2.16398e-06 -8.44073e-06)
(-1.38023e-06 -7.69951e-07 -1.16915e-05)
(1.19118e-06 1.23422e-06 -9.25186e-06)
(9.08049e-07 -1.07256e-06 -9.0479e-06)
(2.58531e-06 1.14664e-06 -1.14637e-05)
(-1.21561e-06 -4.50026e-06 -1.12317e-05)
(-6.79154e-07 -2.43268e-06 -8.93944e-06)
(3.81126e-07 3.96041e-07 -6.55757e-06)
(1.47738e-06 -1.1128e-06 -9.23486e-06)
(-4.53762e-06 2.16623e-06 -8.19748e-06)
(-2.24986e-07 -1.35833e-07 -7.31482e-06)
(-2.6382e-06 -3.51664e-06 -7.73757e-06)
(2.52206e-06 2.00183e-06 -8.20655e-06)
(2.4124e-06 -3.80599e-08 -6.44646e-06)
(2.22616e-06 -2.36464e-06 -8.5128e-06)
(2.81153e-06 -2.35154e-06 -9.74079e-06)
(1.25945e-06 -3.38221e-06 -6.61191e-06)
(2.11999e-07 1.17843e-06 -7.97217e-06)
(1.02866e-06 -1.78202e-06 -6.43473e-06)
(1.50817e-06 -1.18897e-06 -6.67554e-06)
(2.38754e-06 1.86797e-06 -8.58543e-06)
(-8.61227e-07 -3.35749e-06 -7.39165e-06)
(2.12119e-07 -4.83506e-07 -5.5947e-06)
(1.44292e-06 2.15708e-06 -6.87537e-06)
(-9.64198e-07 -2.26288e-06 -5.95035e-06)
(1.30425e-08 -1.61522e-07 -4.45434e-06)
(9.80915e-07 1.7683e-06 -5.25074e-06)
(-7.54293e-07 -1.56314e-06 -4.56684e-06)
(-1.41178e-09 -8.35065e-08 -3.36348e-06)
(7.13168e-07 1.32824e-06 -3.90849e-06)
(-5.38085e-07 -1.1053e-06 -3.37704e-06)
(1.80215e-09 -6.37082e-08 -2.46452e-06)
(5.16591e-07 9.59148e-07 -2.82996e-06)
(-3.7789e-07 -7.81209e-07 -2.4217e-06)
(1.96774e-09 -4.87275e-08 -1.75179e-06)
(3.65652e-07 6.77851e-07 -1.99928e-06)
(-2.65289e-07 -5.45075e-07 -1.69698e-06)
(-5.16145e-10 -3.02409e-08 -1.22532e-06)
(2.48265e-07 4.75587e-07 -1.39177e-06)
(-1.98321e-07 -3.80041e-07 -1.18895e-06)
(-1.22312e-08 -2.64521e-09 -8.49357e-07)
(1.52663e-07 3.4972e-07 -9.90982e-07)
(-1.75904e-07 -2.53912e-07 -8.68035e-07)