/*--------------------------------*- C++ -*----------------------------------*\
| =========                 |                                                 |
| \\      /  F ield         | OpenFOAM: The Open Source CFD Toolbox           |
|  \\    /   O peration     | Version:  2306                                  |
|   \\  /    A nd           | Website:  www.openfoam.com                      |
|    \\/     M anipulation  |                                                 |
\*---------------------------------------------------------------------------*/
FoamFile
{
    version     2.0;
    format      ascii;
    arch        "LSB;label=32;scalar=64";
    class       volScalarField;
    location    "2.4";
    object      gradTy;
}
// * * * * * * * * * * * * * * * * * * * * * * * * * * * * * * * * * * * * * //

dimensions      [0 -1 0 1 0 0 0];

internalField   nonuniform List<scalar> 
5322
(
0.0467265
0.00552655
0.00135041
0.000408138
0.00112345
0.00136758
0.00125503
0.00104442
0.000844995
0.000637581
0.00019891
-0.00114138
-0.0011744
-0.00107095
-0.000958677
0.00215658
0.00285267
-2.58117e-05
0.00216936
-0.00303557
0.00327971
-0.00411733
0.00465428
-0.00591465
0.00679749
-0.0081801
0.00929525
-0.0114367
0.0128471
-0.0149934
0.0167257
-0.0193662
0.0218938
-0.0212499
0.0216876
-0.0122339
0.0245584
0.0299677
0.0151461
0.0169788
0.0221442
0.0185968
0.0198792
0.020696
0.01974
0.020267
0.0200557
0.0214374
0.0206256
0.0190432
0.0240327
0.0107786
0.0126076
-0.0390186
-0.00190155
-0.0224154
0.0123245
-0.0292038
-0.00139809
-0.0253742
0.0125068
-0.028699
-0.00124306
-0.0251889
0.0125629
-0.0297667
-0.00170192
-0.0244359
0.0127427
-0.0331894
0.00100491
0.0260058
0.0144337
0.0202348
0.0150507
0.0191253
0.0159137
0.0190688
0.0162243
0.0227407
0.0017041
0.00878514
0.0128755
0.020528
-0.00135266
-0.00747125
0.00270712
0.00514707
0.010931
0.00157048
0.0029358
0.000526978
7.36324e-05
7.13861e-05
0.0254831
-0.0146139
0.000474549
0.0147711
0.000452189
-0.000742341
0.00264349
0.000473216
0.0157834
-0.0247859
0.0222404
0.000510449
-0.000492846
-6.22395e-05
1.36665e-05
4.79621e-05
4.46418e-05
3.46602e-05
2.87993e-05
2.58674e-05
-1.45794e-05
1.07236e-05
0.00080541
-0.000312091
-0.000125643
-0.000599842
0.000745957
-0.000382305
-0.000763968
-0.00106025
-0.00119114
-4.66193e-05
0.000885037
-0.00066088
6.38768e-05
0.000726365
-0.000721721
3.10954e-05
0.000754364
-0.000773921
-2.52374e-05
0.000702766
-0.000844965
-6.88427e-05
-0.000210003
0.0012986
0.00106611
-0.000728915
0.00047896
0.000371259
-0.00078784
9.98338e-05
-0.000759297
0.000593083
0.000617382
-0.000682602
-9.50154e-06
-0.00062654
0.000632096
0.000693298
-0.000614568
-1.65748e-06
-0.000579289
0.00074651
-3.80709e-05
-2.31641e-05
0.00242722
-0.00189023
0.00232668
-0.00283681
0.000118857
-0.00152337
8.84105e-06
7.02071e-05
-0.000231329
0.000657254
-0.00131214
0.00130958
-0.00232334
7.58939e-06
0.00237837
-0.00261561
0.00272287
-0.00318201
1.59658e-05
0.00314073
-0.00377804
0.00391938
-0.00463362
2.11726e-05
0.00454145
-0.00546837
0.00565471
-0.00670841
2.51892e-05
0.00657434
-0.00784724
0.00810724
-0.00952526
3.54819e-05
0.00934159
-0.0110182
0.011383
-0.0131417
5.49731e-05
0.0128858
-0.0150392
0.0155361
-0.0175031
7.92216e-05
0.0171174
-0.0198119
0.0204421
-0.0221156
0.000110603
0.0215002
-0.024855
0.0250648
-0.0146529
-9.75529e-05
-0.00155968
0.000765091
-0.000492962
-2.33822e-05
0.000141324
0.000220418
1.56942e-05
0.0255141
-0.0145929
7.69174e-05
0.017516
-0.00265637
-0.00110559
0.000951663
-0.000975123
0.0146843
-0.0251288
0.000156279
0.000111965
0.000313915
0.000173058
7.33106e-05
2.30682e-05
8.29133e-07
-1.14764e-05
-1.91677e-05
1.84749e-05
-1.06724e-05
-0.000644696
-0.000689594
-0.000690919
-0.000645065
0.00015117
0.000213094
0.000126165
-0.000850104
0.00041581
-0.000873052
0.000212661
0.000151475
0.000127388
-0.000862708
0.000285597
0.000819319
0.000517558
-0.000850062
0.00041702
0.000889752
0.00124487
0.00133758
-0.00234516
-0.00234128
-0.00251573
0.00204644
-0.00286292
0.00311858
-0.00393496
0.00458546
-0.00561354
0.00662086
-0.00797896
0.00928175
-0.0111532
0.012561
-0.0152401
0.0163795
-0.0200705
0.0203637
-0.00379724
0.0121728
-0.00229636
0.000292175
0.0176329
-0.0184729
0.00088346
0.0148489
-0.0144031
0.000632239
0.0116381
-0.0106086
0.000471596
0.00868672
-0.00757913
0.00035101
0.00621414
-0.00531945
0.000247672
0.0042847
-0.00372151
0.000158653
0.0028665
-0.00270521
0.000184776
0.00179588
-0.000170793
0.00179533
-0.00270627
0.000184934
0.00205579
-0.00250334
0.000969629
0.00155547
0.00113891
0.00108388
-0.00220278
0.00162712
-0.00258366
0.0027423
-0.00353922
0.0041407
-0.0050638
0.0060226
-0.00723284
0.00844401
-0.0101876
0.0114131
-0.0139542
0.0148242
-0.0178275
0.017891
-0.00217834
0.00907067
-0.00755426
0.000673255
0.0247108
-0.0260324
0.00116086
0.0214279
-0.0196659
0.000752481
0.0165471
-0.0141587
0.000508341
0.0121764
-0.010056
0.000362675
0.00870821
-0.00704902
0.000250133
0.00608621
-0.00491215
0.000165267
0.00419398
-0.00355061
0.00019923
0.00275741
-0.00280958
0.000960749
0.002175
0.00191285
-0.000957564
0.00200341
-0.000463195
0.000310944
0.00231666
-0.00202074
0.00208719
-0.00226147
0.00363168
-0.00320617
-2.83591e-05
-0.00313283
0.00267994
-0.00246216
6.37456e-05
0.00257421
0.000108743
2.75256e-05
-0.000694002
6.55676e-05
-5.49982e-05
3.68428e-05
-1.67122e-05
-6.97521e-06
0.00236862
-0.0023722
0.00264925
-0.00314406
3.85443e-06
0.00382555
-0.00455175
0.00554151
-0.00658569
1.7571e-05
0.00796369
-0.00934648
0.0112027
-0.0128746
3.56586e-05
0.0153105
-0.0170858
0.0201308
-0.0214954
-3.56471e-05
3.82549e-05
6.10278e-05
0.000174403
9.01577e-05
8.98233e-05
0.0154691
-0.0170783
7.95586e-05
0.0202832
-0.0229646
0.0205258
-0.0212924
0.000201877
0.0259786
-0.02782
0.0178597
-0.0134009
-0.0244351
-0.0018624
-4.65711e-05
-0.00877723
-0.00235356
0.000391763
0.0131262
0.0162302
0.00107803
-0.0222443
0.0151076
-1.52743e-05
-0.0140793
0.0113878
-0.00017582
-0.00967333
0.00832281
-0.000124042
-0.00664055
0.00585405
-0.000132562
-0.00462928
0.004223
-0.000129151
-0.00308329
0.00307411
-0.000212482
-0.00205897
0.000556053
0.000891608
-0.00130137
-5.13027e-05
0.00227521
-0.00241967
0.00276079
-0.00322473
0.0039228
-0.00465049
0.00755
-0.00662555
-2.75701e-05
-0.00636029
0.00554428
-0.0045961
-3.32666e-05
0.00522094
1.94241e-05
-7.13059e-05
-4.13523e-05
-0.000191501
-0.000296267
0.00011506
0.000203308
6.09939e-05
0.000114472
0.000170392
9.73033e-05
-0.000128293
0.00206279
0.000658344
0.000128277
0.000510652
2.7883e-05
-0.000119668
-8.06693e-05
0.000109519
0.000149424
-0.000140904
-0.000237822
-0.00363027
-0.000133466
0.00419908
-0.00525989
0.00560043
-0.00659864
0.00791564
-0.00911407
0.0149754
-0.0129145
9.3118e-06
-0.0127531
0.011253
-0.009389
-1.70829e-05
0.0107572
6.57532e-05
-8.02524e-05
-8.50745e-05
4.26338e-05
-0.000834239
-0.000386035
-0.000273214
-0.000563205
-0.000178551
-0.000129395
0.00298622
-8.11442e-05
-9.16882e-05
0.000278073
-0.000585044
-0.000177256
0.00115213
0.00216773
0.0039448
0.000299331
-4.07343e-05
0.00013705
1.46058e-05
-0.00284735
-8.34531e-05
0.003139
0.00286312
-0.00371752
0.000159195
-0.00392531
-0.000144493
0.00460969
0.00428348
-0.00530829
0.000249174
-0.00562285
-0.000214093
0.00663451
0.00622559
-0.00756169
0.000354216
-0.00802704
-0.000182633
0.00925522
0.00873457
-0.0105955
0.000478976
-0.0112815
0.000175428
0.0123861
0.0117944
-0.0144553
0.000647467
-0.0154637
0.00144064
0.0157181
0.0152991
-0.0188177
0.000907806
-0.0200908
0.00506484
0.0186767
0.0186746
-0.00286812
0.00030502
-0.0034507
0.058374
-0.0282064
-0.0290902
0.0435322
0.0114636
0.00415317
-0.0350003
-0.0080467
-0.00486145
0.0154922
-0.0162389
-0.000308072
0.000652586
-0.00285401
-0.00325683
-0.000635094
0.000878836
0.000491503
-0.000172402
-0.000550942
-0.000174481
0.000253014
7.10112e-05
3.73727e-05
1.58796e-05
-7.10344e-06
-2.80591e-05
-0.000104934
-5.26613e-05
0.0013515
-0.00135159
1.39559e-05
9.49741e-06
-0.00137508
0.0013547
-3.15502e-06
5.44752e-06
-5.56332e-06
-0.00010181
-6.45653e-05
0.000245765
2.00069e-05
0.000282581
-9.93804e-05
-0.000122439
-2.22529e-06
0.000461338
-0.000540601
0.000545891
-0.000456364
-0.000463226
-0.00039071
1.69236e-05
0.000542339
0.00048258
-0.000478875
-1.34349e-05
-0.000543405
1.05572e-06
2.31271e-06
2.5631e-05
4.07821e-05
3.28392e-05
-0.000222388
-7.32669e-05
-0.000132934
-0.000176818
-0.000179422
-6.05693e-05
-2.34209e-05
0.000962648
-0.00203653
-0.000841733
-0.000121119
0.00874078
-0.00973707
0.0109347
-0.0124032
0.0145582
-0.000599725
-0.0134897
-0.000399373
0.0125048
-0.00028968
-0.00113814
0.000191304
0.000136921
0.0002616
0.000304974
-0.000265634
-0.00327166
0.0112367
-0.00533354
-0.0191694
-0.00289445
-0.00341405
-0.0439984
-0.012412
0.0016088
-0.0184726
0.0133831
0.000661392
0.000615338
0.0161763
0.013541
0.0017557
-0.001559
0.0178131
0.016024
0.00186528
-0.00186061
0.0162036
0.0182385
0.00174116
-0.00418098
0.0135052
0.0184956
-0.00658077
0.0105489
-0.00916715
0.00980031
-0.0384637
-0.0207921
0.00338497
-0.00951109
0.0185148
-0.00116097
-0.0300568
0.0171096
-0.000325298
-0.0202106
-0.0200986
-0.0289078
0.010072
-0.0152309
-0.0101621
0.0159656
-0.0286965
-0.00413253
0.0184366
-0.0193409
-0.00138053
0.0151137
-0.0133602
-0.000713731
0.0113524
-0.00944705
-0.000544515
0.00819784
-0.006677
-0.000416474
0.0057936
-0.00465876
-0.000258469
0.00406484
-0.00324821
-2.26086e-05
0.00298906
-0.00217019
0.000497301
0.00197732
-0.000998345
0.00190223
0.0021714
-0.00283682
0.00275017
-0.00358629
0.000202516
0.00162193
-0.00220462
0.000959146
0.001078
0.00114784
0.0015547
0.0013347
0.000968755
0.00189008
0.00114447
-0.000204171
-0.000635898
-0.000832441
-0.000804769
-0.00109286
-0.00160958
-0.00123057
-0.000566591
-0.000297723
0.00603373
-0.00721565
-0.000227425
-0.000175049
-0.000335274
3.3169e-05
-0.00909355
0.00797734
2.82394e-05
0.00669856
-0.00800687
2.93926e-05
0.00953394
-0.0112334
5.97001e-05
0.0131813
-0.0153102
0.000108765
0.0175582
-0.0200975
0.000145363
0.0220263
0.000170059
0.000378246
1.82478e-05
-2.19904e-05
-7.46756e-05
1.19144e-05
3.18176e-05
2.52978e-05
1.58273e-05
7.68935e-06
3.02477e-06
1.88175e-06
1.23736e-05
3.66198e-05
-0.00131707
2.1926e-05
7.01726e-05
-7.03369e-06
-1.04308e-05
-1.57787e-05
-2.24949e-05
-3.69148e-05
-7.0787e-05
-0.000137406
-0.000184864
0.000755551
-0.000221934
-0.000583773
-0.000793853
0.0154916
-0.0165748
0.0197076
2.23922e-05
-0.0027462
0.0022909
0.00716231
2.87671e-05
-0.00642854
0.00602236
0.00614881
9.84239e-06
-0.00684994
0.00640065
0.00552389
-7.09183e-06
-0.00863836
0.00819727
0.00772803
-0.000165154
0.0106833
-0.0112386
0.0109603
-0.0117744
-0.00110069
-0.00597943
0.00850502
-0.000752252
-0.00818045
-0.000189686
-5.86839e-05
0.0284035
-9.16063e-05
-0.0285825
0.0177962
-0.000634301
-0.0184077
0.0184524
-0.000409934
-0.019338
0.0287795
-0.00027936
-0.0287945
0.0255826
-0.0254907
0.0253242
-0.0259507
0.000111077
-0.0284854
0.0281635
-3.31641e-05
-0.0184475
-0.000703007
0.0186028
-0.0158732
0.000101463
0.0281872
0.0101902
0.0276161
0.0102284
-0.0122396
0.0179757
0.00226068
-0.0134664
0.01347
0.000859867
-0.0109218
0.0100485
0.000582904
-0.00821132
0.00745742
0.000423061
-0.00597843
0.00528077
0.000315292
-0.00424296
0.00373226
0.000151579
-0.00300503
0.00247671
-9.93323e-05
-0.00228481
0.00139515
-0.000850318
-0.00232509
-0.000665007
-0.00206755
0.001363
0.000128376
6.85306e-05
0.000848745
0.000214192
-0.00131052
-0.00106999
-0.000285475
-0.000831537
-0.000527335
-0.000407489
-0.000921808
-0.000446665
-0.00047574
-0.000915133
-0.00134353
-0.0014169
-0.0009645
0.00249507
0.000164604
-0.0016433
-0.000181943
0.00253998
0.00299053
6.66104e-05
-0.00261704
-0.000158922
0.00341817
0.00501364
2.70582e-06
-0.00613917
0.000106178
0.00714827
-4.70123e-05
-0.00878771
0.000163798
0.0100853
-7.25977e-05
-0.0122864
0.000145777
0.0138496
-9.47327e-05
-0.0166625
0.000199215
0.0183854
-0.000177745
-0.021914
3.33546e-05
0.0232902
-0.000498605
-0.0279566
-0.000776588
0.000546641
-0.0169693
0.0276747
0.000160752
0.0159284
0.000343158
-0.0136487
0.0223938
-4.06851e-05
0.012178
0.000298366
-0.0105057
0.0172165
-3.51463e-05
0.0091225
0.000240816
-0.00775157
0.0127593
-1.98086e-05
0.00661257
0.000206041
-0.00557299
0.00915952
-1.25139e-05
0.00468172
0.000147043
-0.00390739
0.00642524
-6.97962e-06
0.00324157
0.000103941
-0.00276531
0.00448284
-1.69966e-05
0.00229018
6.37377e-05
-0.00209311
0.00317094
-0.000103839
0.00203427
-0.000306017
0.00046781
-0.00217916
-0.00190132
0.000989923
-0.00199785
-0.000510199
-0.00026221
-0.00395753
-0.00217584
-0.00190865
-0.00129603
-0.000967413
0.00223381
0.00258013
0.000211757
-0.00155698
-0.000198125
0.00363054
8.41488e-05
-0.00422765
0.000120397
-0.000250366
-0.00011781
-1.03381e-05
-0.00215315
-3.27008e-05
0.000865896
-0.000115319
-0.000145898
-0.00022989
0.000856459
-0.000278453
0.000115688
0.000101424
3.20038e-06
7.88309e-06
7.15169e-06
6.76716e-06
5.65464e-06
6.15897e-06
-1.10313e-05
-4.30304e-06
0.00382937
-0.00443156
2.38981e-05
-8.82009e-06
-3.23311e-05
2.11858e-06
-0.00270845
9.87307e-07
0.00316873
-0.00387589
4.6921e-06
0.0046166
-0.00558759
1.31691e-05
1.05764e-05
-1.36138e-06
1.16061e-05
1.32804e-05
3.90741e-05
5.20988e-05
3.37979e-05
2.01394e-05
1.13597e-05
8.8542e-06
2.02601e-05
1.68381e-05
1.09243e-06
0.00312724
-0.00370804
0.0033522
-0.0040223
0.00482114
-0.00576854
7.95471e-05
-0.00231198
8.65375e-05
0.0021637
0.000101715
-0.00172783
5.16601e-05
0.00133118
-0.000105463
-4.69972e-05
0.00047645
-2.35261e-05
-0.000754211
0.00500589
6.87405e-05
-0.00380473
-0.000234402
0.00460395
0.00602729
0.000233611
-0.00568011
-0.000317758
0.00681087
0.00824421
0.000371431
-0.00801983
-0.00042318
0.00926523
0.0113394
0.000499589
-0.0110256
-0.000548021
0.0120311
-0.0145808
-0.000678845
0.0145525
-0.0188552
-1.11245e-05
-0.000637866
-0.000131833
-2.79177e-05
2.31557e-05
3.19849e-05
2.89461e-05
2.716e-05
2.69444e-05
-1.51074e-05
1.12856e-05
0.000646452
0.000685971
0.000693314
-0.000186844
0.000883353
-3.7049e-05
-4.19757e-05
0.000909009
-0.000162653
0.0008555
-0.000271116
3.46562e-05
-7.16552e-05
7.21448e-05
-1.79441e-05
2.51805e-05
-8.22056e-06
-0.00260123
9.57783e-05
6.927e-05
2.06734e-05
3.49337e-06
9.51708e-07
-0.000478934
0.000478391
1.70704e-05
-0.000397661
0.000630582
-0.000143579
4.65917e-05
5.85319e-05
6.33787e-06
-9.51141e-05
0.000877517
-0.00255994
0.000164847
-0.00173028
-0.000197005
0.00247341
0.00305456
3.17781e-05
-0.00265958
-0.000149389
0.00412032
0.000114548
-0.00390673
-0.000231037
0.00487281
0.00589954
0.000238174
-0.00574273
-0.000326314
0.00679255
-0.00808901
-0.000431349
0.00924559
0.00034411
0.000276873
0.00020705
0.000139904
7.34613e-05
4.75795e-05
-2.37061e-05
2.67096e-06
2.13505e-05
5.14753e-06
-1.21245e-05
-6.06347e-05
-4.31119e-05
-1.50255e-05
-1.60683e-05
-6.39937e-05
-4.75715e-05
-0.000130758
-0.000117726
-0.000182726
-0.000205338
-0.00107977
-0.00154512
-0.00244602
-0.00264904
-0.00475986
-0.00407274
-0.00235089
-0.00874964
-0.0263567
0.00171333
-0.0418193
-0.031128
-0.0233819
-0.0156002
-0.0137912
0.00524607
-0.0122144
-0.000780367
0.00307168
0.000302274
-0.00022406
0.0149098
-0.0173682
0.0200641
0.000182742
-0.00246242
0.00375733
0.00831903
0.000308446
-0.00578289
0.00778727
0.00777751
0.000325089
-0.00618402
0.00802685
0.00730383
0.000239699
-0.00828185
0.00912909
-0.000417199
0.000330602
0.000702522
0.00410571
-0.0174374
-0.0251258
0.00095787
0.0214832
0.000487292
0.000225954
0.0136216
0.000145306
-0.0223059
0.0253806
6.09593e-06
-0.0269863
0.0159213
-0.0163614
0.0143452
-0.00246512
-0.0176997
0.000633769
-0.0211311
0.0289791
-0.0253729
0.0238163
-5.30247e-05
-0.0238545
3.72974e-05
0.0236311
-7.07488e-05
-0.0237358
1.44233e-05
0.023843
-8.20935e-05
-0.0239324
0.0258164
-0.0296023
0.00199476
-0.022723
0.031306
0.00161306
0.000896713
-0.00982873
0.0105079
-0.0108721
3.09428e-05
-0.00821588
0.00756059
0.000540947
-0.00939373
0.00677791
-0.0079242
0.000618047
0.0152381
-0.00855725
0.00510594
0.0011161
-0.00961157
0.00759196
-0.000163895
-0.000146299
-7.16812e-06
0.000258224
0.000132416
4.97699e-05
1.15999e-05
-3.92789e-06
-1.29031e-05
-1.92801e-05
1.83188e-05
-9.62103e-06
0.000395167
0.000460492
1.2418e-06
-0.000105997
-6.54719e-05
0.000825439
0.00028628
-0.000727944
0.00037063
0.000478871
-0.000768166
1.77489e-05
-0.000849698
-6.77572e-05
-0.000213439
-0.000706894
0.00107068
0.00131408
6.77142e-05
0.000246873
-5.93177e-05
3.43264e-05
0.000597821
-0.000642618
-6.61424e-06
-0.000686626
0.000687344
0.000645101
-0.000594827
-2.43983e-06
-0.00078201
8.42111e-08
0.000782798
7.41684e-07
2.05725e-06
-1.86452e-05
2.75746e-05
4.63867e-05
0.000245087
0.00394154
0.0021653
0.00113087
-0.000206474
-0.000631643
-0.000849143
-0.00111273
-0.00156226
-0.00240589
-0.00407698
-0.00418271
-0.00801437
-0.00875829
-0.0187253
-0.0307437
-0.027741
-0.0278987
0.0116297
-0.0167975
-0.00800617
-0.00865559
-0.0254275
-0.0313672
-0.0282352
-0.0282465
-0.0282111
-0.0280804
-0.0320511
0.0117853
-0.0019021
-0.00711968
0.0355499
-0.0101861
-0.0232547
-0.0217994
-0.00627013
-0.00766351
-0.0174903
-0.0181397
-0.0027996
-0.00483939
9.8293e-05
0.000719249
0.000740355
0.000590559
0.000433965
0.000331944
0.000185928
0.000177841
8.26541e-06
0.000114376
-0.000376485
-0.000627808
-0.000857854
-0.00117754
-0.00174258
-0.00299744
0.000571361
0.000384042
0.000292918
0.000545833
0.00057457
0.000471361
0.000464866
0.000323823
0.00040829
0.000251332
0.00273436
0.00416402
-0.00493536
0.00604271
-0.00704488
0.000251457
0.00412223
-0.00355095
0.000168164
-1.2662e-05
-6.67072e-05
-5.43537e-05
-0.0025915
3.74508e-05
-0.000868199
0.00052073
-0.000201899
-4.29824e-05
-6.07502e-05
9.86862e-05
-0.000789669
0.000615333
-3.99248e-06
-1.64398e-06
-1.63303e-06
9.47191e-07
0.000394978
-1.28324e-05
2.45594e-06
2.24466e-06
1.11129e-06
-0.000245754
1.94776e-06
0.000102287
6.36124e-05
8.40662e-05
-6.6525e-05
5.84316e-05
-5.74543e-07
6.4726e-06
-0.000245119
0.000789752
0.000769897
-0.000475085
-9.60507e-05
-0.000376121
0.000732955
6.53997e-05
1.89822e-05
2.33411e-06
9.72841e-07
-1.52202e-05
-1.26253e-05
-1.17181e-05
-3.99932e-05
-4.77753e-05
-7.0165e-05
2.78403e-05
-0.000127119
-0.000115235
-0.000175942
-0.000197733
-0.00507081
0.00598631
0.00865655
-0.0100008
0.0121048
-0.0139488
0.000482899
0.00837378
-0.00721768
0.000354779
1.97193e-05
-8.50571e-05
8.32489e-05
-8.13262e-05
0.000169729
-0.000191418
-0.000201384
-0.000194035
-0.000195951
-8.97021e-05
0.000100659
0.000275166
0.000339346
0.000152167
0.00401453
0.000129033
0.000143986
6.82276e-05
2.97797e-05
7.50834e-06
-1.03522e-05
-4.80413e-06
-4.14156e-06
-1.16483e-05
1.79868e-05
6.13754e-06
-7.21499e-07
4.23874e-05
1.92025e-05
1.91303e-05
1.08552e-05
-8.02914e-07
1.91943e-05
1.72265e-05
4.50083e-06
8.94867e-06
1.55774e-05
2.53739e-05
1.82871e-05
8.24143e-05
4.10369e-05
6.44336e-05
0.000164454
7.81928e-05
0.0001629
0.000333081
0.000262263
0.000928153
-0.00241804
-0.00294788
-0.000499042
0.000378213
0.000520095
0.000327789
-0.00711553
-0.000157148
-8.70859e-05
-0.000102482
-0.000734252
-0.000255272
0.0162719
-0.00022286
-0.0203564
-0.000158117
-0.000881588
-0.0189226
-0.000865324
-0.00107106
-0.0125181
-0.00623655
-0.0102704
-0.0247537
0.00255626
0.00621712
0.000384877
-0.000337662
-0.000289875
-0.000527652
9.93084e-05
-0.0145904
0.0194897
0.000127496
-0.00435558
0.00198143
0.00663273
4.62366e-05
-0.00829584
0.00529242
0.00534904
-1.56318e-05
-0.00855642
0.00564991
0.00474264
-6.95114e-05
-0.00787177
0.00189679
-0.0115194
0.00555012
0.00861357
-0.0108374
0.00320198
0.00137958
-0.00064487
-0.000111746
-1.90074e-05
3.20311e-05
3.65242e-05
3.03113e-05
2.67655e-05
2.30697e-05
1.29248e-05
2.21971e-05
8.35286e-05
0.00446508
-0.0053559
9.13311e-05
0.00643075
-0.00767919
0.00688962
-0.00818078
0.009643
-0.0113245
0.000122843
-0.00469658
0.000133925
0.00450645
9.53731e-05
-0.00329599
0.000116443
0.00319094
1.69569e-05
9.50222e-05
0.00103854
-7.39985e-05
-0.00147915
0.0100729
0.000260098
-0.00764906
-0.000422745
0.00893413
0.0115776
0.000502011
-0.0108497
-0.000541403
0.014667
0.000789842
-0.0144696
-0.000749862
0.0145354
0.0184993
0.000766357
-0.0225296
-0.000242209
-0.0187354
-0.0222814
0.000902839
0.0179733
0.0149289
-0.0184041
-0.000177944
-0.000635509
0.000537128
0.000444696
0.000373156
0.000291527
0.000210436
0.000133611
5.90623e-05
9.80478e-05
2.47253e-05
-3.74829e-08
3.34901e-05
1.04031e-07
0.0091174
-0.0107774
0.000167584
0.0125724
-0.0147279
0.0131609
-0.0151759
0.0175537
-0.0191936
-0.000574475
-0.00842808
-2.86518e-05
0.00853614
5.36426e-05
-0.0065878
0.00010864
0.00621567
-1.86028e-05
0.000248301
0.00225241
4.05278e-05
-0.00242102
0.0183962
0.000439521
-0.0133391
-0.000746089
0.0152378
0.0183899
0.000757066
-0.0231573
-0.000142242
-0.0165281
-0.0296727
0.000183353
0.0227164
-0.00182599
0.00977687
-0.000173843
0.00670984
0.00544478
0.00282328
0.00179335
0.0125017
-0.00755207
-0.000441135
0.00114032
0.000627287
0.000466528
0.00037712
0.000290795
0.000201631
9.81156e-05
6.88803e-05
0.00158635
-0.00110514
-0.0017983
-0.000421796
0.000344657
-0.00094013
0.00301674
-0.00130228
-0.00157009
-0.00154322
-0.000928737
0.00226802
0.0025298
0.000160177
-0.00175006
-0.000186322
0.00296409
4.08385e-05
-0.0026108
-0.00014952
0.00345224
0.00414218
0.00012974
-0.0039453
-0.00023734
0.00484129
-0.000395127
-0.000306419
-0.00483549
-0.000168573
-0.00328724
0.000679008
0.000684554
0.000203599
-0.00120833
-0.00199868
-0.00133385
-0.00098982
-0.00211954
-0.000689877
-0.00036434
0.000207702
4.81477e-05
0.00363412
2.03752e-05
-0.0026153
-0.000156665
0.0032634
0.00423067
0.000108762
-0.00392156
-0.000228567
0.00586795
0.0002394
-0.00569039
-0.00032219
0.00681871
0.00829808
0.000353791
-0.00979269
-0.00058403
-0.000444745
-0.00697827
0.00101457
0.00102016
0.000857888
-0.00019145
-0.00322797
-3.458e-05
-0.00195182
0.000211101
-0.0005035
-0.000659795
7.57227e-05
0.000636478
-0.000313556
-0.00396622
0.000398888
4.29489e-05
0.000722668
-5.61446e-05
0.00713813
0.000164459
-0.00546651
-0.000324378
0.00647995
0.00847905
0.000360646
-0.00798168
-0.000414635
0.0112371
0.000532424
-0.0109385
-0.000555224
0.0120207
0.0148932
0.000722148
-0.017573
0.000399602
-7.04247e-05
-2.54808e-05
2.32491e-05
1.94611e-05
1.30269e-05
7.90169e-06
4.39982e-06
-4.83991e-06
-5.28008e-06
1.65902e-05
3.52509e-06
-3.72472e-06
6.2169e-06
2.12882e-05
4.81412e-05
7.59793e-05
3.91224e-05
1.49399e-05
4.26604e-06
4.6537e-06
-3.44759e-06
1.1328e-06
0.00387112
3.05319e-06
-0.00386031
0.00461547
5.46118e-06
-0.0055747
0.00559153
-0.00459975
0.00465954
7.35118e-06
-0.00564965
0.00557265
-0.00461619
0.00386248
-6.22135e-06
-0.00392681
0.00320212
-0.00318189
0.003191
-0.00319574
1.16399e-05
-0.00385487
0.0039396
1.14003e-05
-0.00464934
2.85179e-06
-0.00556245
0.00567122
1.25073e-05
-0.00673101
-1.06137e-06
-0.00795662
0.00809633
-0.00796907
0.00799399
8.82603e-06
0.00667295
-0.00664898
5.77649e-06
0.0067466
1.78288e-05
-0.00806525
0.00797181
-0.00665126
-3.01938e-05
-0.00638692
0.00391705
1.37911e-05
0.00524755
-3.23505e-05
-0.00446002
0.00276942
2.00299e-05
0.0036612
-0.00322302
0.00270619
-1.09273e-05
-0.00274903
-3.71257e-07
0.00268898
1.88357e-06
-0.00268307
8.13348e-06
0.00275454
1.40151e-05
-0.00270082
0.00323418
-0.00366229
3.3135e-05
3.91524e-05
2.91183e-05
0.000105919
6.76777e-05
-0.00136574
0.00141253
-0.0013908
0.00139189
2.21412e-07
-3.29452e-06
-3.22659e-06
-0.00141181
0.00136669
-6.72859e-05
-3.83532e-05
0.000710338
-0.000795734
2.4446e-06
-5.42116e-06
0.00240619
-0.00243481
0.00243898
-0.00240337
0.00249028
-0.00259725
-6.1077e-05
-1.80412e-05
-0.000709089
3.90813e-05
0.000795893
-3.32939e-05
2.18968e-05
1.88183e-05
3.89843e-06
6.79813e-06
1.06338e-05
1.37697e-05
1.33488e-05
-0.00942201
1.01165e-05
-0.0111126
0.0111452
-0.0112385
0.0111357
2.72864e-05
0.00956873
-0.00941523
-2.55839e-05
-0.00910599
0.00557649
2.65448e-05
0.00756707
-0.00466562
-0.000136901
-0.00365345
0.00421109
-0.000277687
-0.00522353
0.00598223
-0.00033341
-0.00726121
0.00839238
-0.000300158
-0.00977042
0.0115048
-0.000384196
-0.0130464
-0.00112676
-0.000350997
-0.000583983
-0.000186214
-0.000417166
-0.000177495
-0.000336951
-0.000153372
-0.000261326
-0.000100347
-0.000168152
0.00298395
-0.00323632
-9.79534e-05
-0.00246878
0.00225939
9.30261e-05
1.55927e-05
-0.000178135
-2.21346e-05
-0.00139428
-6.18695e-05
0.00209761
0.000104303
-0.00316184
-2.6661e-05
-3.22308e-05
0.000171513
9.34332e-05
-0.000128126
-0.0013619
0.00206642
0.000668047
0.00231507
0.000838758
0.000477248
9.23156e-05
0.000304692
-0.00203538
0.00259808
-0.00248517
6.20739e-05
8.50619e-06
-0.000113803
-2.80513e-05
-7.03339e-06
0.000115484
0.000113217
0.000143158
0.000193769
5.07707e-05
-0.0126958
0.00778203
-0.00661938
0.0107359
2.36804e-05
7.14633e-06
-8.68343e-06
3.47914e-06
1.52009e-05
3.0156e-05
4.37111e-05
5.63453e-05
-9.49957e-06
-0.0129344
3.40392e-05
-0.0151493
0.0150674
-0.0171612
0.0105305
9.33628e-05
0.0148318
-0.00916518
-0.000143768
-0.000154328
0.000733022
0.000572034
0.000567291
0.000796148
0.0112413
0.0164159
-0.0190665
0.00189633
0.00016685
-2.18943e-05
0.000510342
-0.000107096
4.09457e-05
-0.0100939
0.000210595
0.000967904
-0.0136963
0.000667617
0.000106405
5.22057e-05
0.000107817
0.00021873
0.000317975
0.000153606
6.41104e-05
3.27124e-05
2.75287e-05
2.52453e-05
3.57896e-05
4.76901e-05
3.21329e-05
2.66364e-05
3.17678e-05
2.27635e-05
1.90698e-05
-4.83066e-07
1.43197e-05
1.39156e-05
0.000118985
3.83139e-05
2.91583e-05
2.00807e-05
1.85486e-05
1.08226e-05
7.52963e-06
2.11348e-05
2.90575e-05
1.37207e-05
-0.000131173
2.9476e-05
3.77097e-05
2.9309e-05
4.81806e-05
7.3604e-05
7.88819e-05
0.000133679
6.92305e-05
0.000130485
6.59576e-05
0.0167338
-0.0195016
0.000259683
0.0211697
0.000394838
7.88947e-05
0.000220268
0.00129804
-0.0039634
0.012662
-0.0104819
0.0220992
0.00320428
0.0138413
-0.0118901
0.0101426
-0.010068
0.0070621
0.0080148
-0.0109359
0.00247742
-0.0117509
0.00746122
0.00772026
0.0146107
-0.000755686
-0.00028162
-0.00183414
-0.000122208
-0.00754272
-0.000147268
-3.48057e-05
3.94665e-05
5.48651e-05
9.39102e-05
5.30765e-05
4.31928e-05
5.14296e-05
4.22364e-05
-2.15804e-06
4.2495e-05
3.99949e-06
0.000279504
0.000193489
0.000141176
-0.0119794
0.0138579
0.000356872
-0.0103297
-0.000551707
0.0119766
0.01512
0.000706338
-0.0142757
-0.00072217
-0.0174331
0.000448307
0.000378039
-1.93308e-05
1.39822e-05
-2.09799e-07
0.000235378
4.5133e-05
2.38874e-05
3.18377e-05
2.54377e-05
-8.2005e-06
0.000214897
0.000138511
6.36295e-05
-0.00317496
-0.000163199
0.00345425
-9.95828e-06
0.00256112
-0.00200402
-0.00190582
0.00230589
-0.00144181
-0.00133432
-0.0011911
0.000210837
-0.000303655
-0.000341141
-0.00486541
0.000871289
-0.000355423
-0.00105017
0.000574746
0.00110279
-0.000463141
-0.00850287
0.000753961
0.000137501
0.00148044
-6.0662e-05
-0.00199965
-0.00056426
0.00103992
0.00169072
0.0013778
-0.000492315
-0.00708982
-0.000444344
-0.00689506
0.00121487
-0.000646687
-0.00998928
-0.000583829
0.00929362
0.00135395
-0.000834569
-0.0136284
-0.000466032
-0.016473
0.00194903
0.000778197
0.00425581
0.000325302
-0.0222272
0.000863135
0.00201141
0.00229809
0.00351538
0.0132806
0.0312086
0.0163573
0.0240905
-0.00199533
-0.00113826
-0.0180342
0.00118365
0.000543627
0.0023635
0.0161167
0.023398
-0.00194472
-0.00105845
-0.000757268
0.0121677
-0.0132153
0.00125456
0.00118846
0.000896589
5.48343e-05
0.00174229
0.0148319
0.0235949
-0.00200777
-0.00107164
-0.000762819
-0.0133226
-0.000930162
-0.0007225
-0.00056221
0.000813708
0.000609492
0.000360313
2.88925e-06
0.000243813
0.00101267
0.00116906
0.00117931
-0.00116793
-0.0014874
0.00165615
0.0135303
0.0263866
-0.00463114
0.00517686
0.00229368
0.00209788
0.000298736
-0.000148161
-7.36882e-05
-3.68336e-05
-2.01589e-05
-1.20088e-05
-4.36038e-06
1.14763e-05
2.25367e-06
8.01572e-07
-3.04571e-06
1.17543e-05
6.73256e-06
7.31078e-06
-6.09854e-06
-0.000100102
-0.000173607
-0.0001138
1.98522e-05
4.28098e-05
-0.00525366
0.00463578
1.62252e-05
1.52373e-05
1.67275e-05
2.14328e-05
1.36973e-05
2.12738e-05
4.54605e-05
-2.5156e-05
0.000702352
-0.00278579
0.000184531
8.05368e-05
1.03407e-05
1.46772e-05
1.72315e-05
-8.57595e-07
-1.03044e-05
2.11655e-05
1.61563e-05
1.3941e-05
1.08926e-05
1.48751e-05
1.64634e-05
4.93211e-05
4.69875e-05
0.0150232
2.82114e-06
-0.0149919
0.0172135
-2.38452e-05
-0.0194372
0.019433
-0.0171851
0.0174772
2.07421e-05
-0.0196119
0.019599
-0.017137
3.69714e-05
0.0198561
-0.0124081
-3.38375e-05
-8.36788e-05
0.000129884
0.000262785
0.000271191
-0.000305725
-0.00144272
-0.00292694
-0.00578771
9.20311e-05
-0.0022711
-0.000879318
-0.000266829
0.000288661
0.000264687
3.892e-05
5.23376e-05
5.8562e-05
3.29068e-05
0.0131656
-0.0129518
0.0129899
-0.0131355
-1.79082e-05
-0.0150029
0.015187
8.89658e-07
-0.0174642
-4.84634e-05
-0.0195086
0.0196324
-1.71549e-05
-0.0222229
0.021885
-0.0251593
-2.32678e-05
-0.000159257
-5.76635e-05
2.01894e-05
3.64609e-05
0.000128188
0.000302515
0.000838116
0.00441988
-0.00230221
0.0588845
-0.00154334
-0.000275644
-0.00110877
-0.0113837
0.00250167
0.00659649
0.000523607
-0.000116184
-0.00594615
-0.000139757
0.000148196
0.000327201
2.73797e-05
3.47899e-05
0.000552109
0.000317482
-0.0189098
0.0164479
-0.000759218
-0.000471631
-0.000125374
0.00330082
-0.000852446
0.00271274
0.00441694
0.00773481
0.0149714
0.00336712
-0.00860875
0.00346878
-0.0117206
0.00275498
0.00132083
-0.00823208
0.000562499
-0.000142995
1.4634e-05
-2.86402e-05
1.22985e-05
0.000130715
-8.14034e-05
-0.000195404
-5.79049e-05
-0.000217156
-5.18829e-05
8.78624e-06
-2.19746e-06
1.45045e-05
-9.80405e-06
-2.4476e-06
-4.48348e-05
6.11074e-06
7.17405e-05
0.000151888
0.000404482
0.00621269
0.0265219
0.00142274
-0.00376683
0.0169775
0.000575839
-0.00275905
-0.00153583
-0.00249295
0.0584994
-0.00126174
-0.000295026
0.000479686
0.000121258
0.000283719
-0.00541364
-0.000157654
-0.000154402
-0.00116916
-0.0114821
-0.0104446
-0.00665295
-0.0239823
0.00254134
0.00586435
0.000267259
-0.000334161
-0.00035498
-0.000207397
-0.00658657
-0.000345686
0.0032088
-0.00207526
0.00343988
-0.000225505
-0.00604243
-0.000371804
-0.000170539
-4.04661e-06
0.000460175
0.00204442
0.000487889
0.00054396
0.0019588
0.00189774
0.000228814
-0.000109002
-2.81467e-05
5.44024e-05
0.000168056
-9.12318e-05
-2.1408e-05
0.00127532