/*--------------------------------*- C++ -*----------------------------------*\
| =========                 |                                                 |
| \\      /  F ield         | OpenFOAM: The Open Source CFD Toolbox           |
|  \\    /   O peration     | Version:  2306                                  |
|   \\  /    A nd           | Website:  www.openfoam.com                      |
|    \\/     M anipulation  |                                                 |
\*---------------------------------------------------------------------------*/
FoamFile
{
    version     2.0;
    format      ascii;
    arch        "LSB;label=32;scalar=64";
    class       volScalarField;
    location    "2.4";
    object      gradTz;
}
// * * * * * * * * * * * * * * * * * * * * * * * * * * * * * * * * * * * * * //

dimensions      [0 -1 0 1 0 0 0];

internalField   nonuniform List<scalar> 
5322
(
-0.0622019
-0.05733
-0.0491444
-0.0531463
-0.0414994
-0.0314291
-0.0230745
-0.0164882
-0.0116095
-0.00833201
-0.0063831
-0.00574974
-0.00413265
-0.0058123
-0.00643957
-0.00538394
-0.0063176
-0.00495593
-0.00740716
-0.00844691
-0.0101527
-0.0118497
-0.0144526
-0.0170982
-0.0207275
-0.0240457
-0.0287628
-0.0332571
-0.0390864
-0.0441044
-0.0508996
-0.0569485
-0.0640658
-0.0690572
-0.0723823
-0.0634428
-0.0748275
-0.0739772
-0.0762382
-0.0557669
-0.0706678
-0.0729487
-0.0546795
-0.0729829
-0.0722484
-0.0556483
-0.0740483
-0.0699959
-0.0550673
-0.072878
-0.083212
-0.0565252
-0.0789214
-0.0700061
-0.0625477
-0.0662666
-0.0819916
-0.0650025
-0.0626862
-0.0661074
-0.0828528
-0.0658746
-0.0626734
-0.0644915
-0.0828556
-0.0682308
-0.0624606
-0.0613434
-0.0812769
-0.0728379
-0.0520086
-0.0770026
-0.0732831
-0.0721936
-0.0728833
-0.0725334
-0.0724834
-0.0722975
-0.0734476
-0.0700938
-0.0680931
-0.0549662
-0.0570067
-0.0733556
-0.0474712
-0.0650925
-0.0946604
-0.0614032
-0.061601
-0.0534881
-0.0661297
-0.0477034
-0.0502559
-0.0501486
-0.0644696
-0.0615636
-0.0584708
-0.0623839
-0.0962455
-0.0596062
-0.0603112
-0.0542456
-0.0628806
-0.0637731
-0.0696201
-0.0568782
-0.059801
-0.0536312
-0.0419855
-0.0318895
-0.0234168
-0.0166925
-0.0116805
-0.00831208
-0.00729555
-0.00657984
-0.0047003
-0.00503545
-0.00708787
-0.00551451
-0.00479983
-0.00571748
-0.00563708
-0.00787118
-0.0058995
-0.00771382
-0.00558453
-0.00583167
-0.00758784
-0.00557111
-0.00571662
-0.00766084
-0.00565896
-0.00561277
-0.00769426
-0.00573317
-0.00564227
-0.00789659
-0.00591342
-0.00772749
-0.00560614
-0.00482011
-0.00552124
-0.00496908
-0.00471158
-0.00709489
-0.00504048
-0.00501193
-0.00465701
-0.00469228
-0.00711549
-0.0050192
-0.00500078
-0.00466531
-0.00469427
-0.00711034
-0.0050229
-0.00496357
-0.00481329
-0.00644413
-0.00538034
-0.00633149
-0.00820389
-0.00910994
-0.00535543
-0.00741957
-0.00496191
-0.00642053
-0.00420117
-0.00562691
-0.00582418
-0.00542262
-0.00593986
-0.0066142
-0.00568146
-0.00777109
-0.0077077
-0.00850317
-0.00660009
-0.00849534
-0.0102377
-0.0102471
-0.0120252
-0.00920441
-0.0120457
-0.0145192
-0.0145281
-0.0172384
-0.0132099
-0.0172632
-0.0206944
-0.0207061
-0.0243633
-0.0187975
-0.0244071
-0.0288948
-0.0289276
-0.0334972
-0.0260888
-0.0335805
-0.039193
-0.0392727
-0.0445999
-0.035091
-0.0447391
-0.0513839
-0.051545
-0.0574216
-0.0454595
-0.057654
-0.0640228
-0.0641882
-0.0622704
-0.0962521
-0.0595921
-0.0594053
-0.0544177
-0.0746453
-0.0744696
-0.0502593
-0.0502055
-0.0643328
-0.0620717
-0.0579261
-0.0630813
-0.0961348
-0.0599722
-0.0593464
-0.0545471
-0.0620171
-0.0640893
-0.0584304
-0.0584974
-0.0535324
-0.0419991
-0.0319289
-0.0234469
-0.0167107
-0.0116903
-0.008317
-0.00729935
-0.00658551
-0.00468886
-0.00468058
-0.00467723
-0.00468595
-0.00710968
-0.00499988
-0.00502208
-0.00494016
-0.00571772
-0.00828057
-0.00500086
-0.00711196
-0.00502395
-0.0082309
-0.00582205
-0.00757168
-0.00557195
-0.00494282
-0.00571859
-0.00757308
-0.00407912
-0.00559639
-0.00568487
-0.00567861
-0.00594289
-0.00770617
-0.0085065
-0.0102484
-0.0120282
-0.0145342
-0.0172401
-0.0207179
-0.0243656
-0.0289485
-0.0334987
-0.0393127
-0.0445889
-0.0516242
-0.0573618
-0.0646324
-0.0615172
-0.0962868
-0.0626544
-0.0584606
-0.0638836
-0.0578121
-0.0454936
-0.0513831
-0.0448113
-0.0351171
-0.0392241
-0.033609
-0.0261053
-0.0289235
-0.0244173
-0.0188067
-0.0207153
-0.0172655
-0.0132149
-0.0145367
-0.0120422
-0.00920684
-0.0102546
-0.00848805
-0.00659976
-0.00778275
-0.00602509
-0.00777689
-0.00849481
-0.00660089
-0.007713
-0.00594404
-0.00661702
-0.00541528
-0.00412641
-0.00584352
-0.0053929
-0.00779788
-0.00850235
-0.0102342
-0.0120712
-0.0145439
-0.0172841
-0.0207724
-0.024425
-0.0290587
-0.0335863
-0.0395588
-0.0445846
-0.0521691
-0.0568968
-0.0649857
-0.0619239
-0.09518
-0.0657793
-0.0566457
-0.0696552
-0.0625097
-0.0442012
-0.0557447
-0.0481505
-0.0340847
-0.0423311
-0.0359338
-0.0252816
-0.0311036
-0.0260451
-0.0181935
-0.0222499
-0.0184057
-0.0127789
-0.0155842
-0.012833
-0.00890423
-0.0109628
-0.0091119
-0.00638104
-0.00820269
-0.00633453
-0.00644928
-0.00563176
-0.00585272
-0.00519597
-0.00643744
-0.00419305
-0.0047915
-0.00568081
-0.00526644
-0.00794947
-0.00882114
-0.0085235
-0.00849345
-0.00656825
-0.00770046
-0.00783016
-0.00547923
-0.00662764
-0.00606586
-0.00604892
-0.00591498
-0.00795619
-0.00623163
-0.00591664
-0.00820849
-0.00643126
-0.0060346
-0.00588062
-0.00571803
-0.00778404
-0.00849074
-0.00776242
-0.0102617
-0.0120437
-0.0145434
-0.0172653
-0.0155723
-0.0207323
-0.0244012
-0.0289699
-0.0335445
-0.0298436
-0.0393322
-0.0446349
-0.051582
-0.0574714
-0.0502241
-0.0502751
-0.0394799
-0.0395188
-0.0300078
-0.0299302
-0.0395277
-0.0446792
-0.03512
-0.045144
-0.0512627
-0.0519694
-0.0571988
-0.0454383
-0.058484
-0.0633006
-0.0713353
-0.0602889
-0.0963829
-0.0613136
-0.0582018
-0.0562888
-0.0727502
-0.0476497
-0.043205
-0.0600024
-0.0374556
-0.051231
-0.0455365
-0.0284152
-0.0392983
-0.0335992
-0.0209713
-0.0290646
-0.0243202
-0.0150874
-0.020716
-0.017036
-0.0105903
-0.0145276
-0.0118415
-0.0073866
-0.0101235
-0.00838678
-0.00534223
-0.00743694
-0.00535772
-0.0051526
-0.00683503
-0.0063172
-0.00753725
-0.009289
-0.0104002
-0.0124329
-0.0148572
-0.0177763
-0.0172471
-0.0173054
-0.013184
-0.0145707
-0.0145622
-0.0120768
-0.00918375
-0.0120151
-0.010902
-0.0103952
-0.00737522
-0.00648578
-0.00770167
-0.00730527
-0.00698971
-0.00823747
-0.00829632
-0.00637358
-0.00577476
-0.00428872
-0.00710692
-0.00397939
-0.00559061
-0.00629755
-0.00698145
-0.00956441
-0.0116477
-0.0115771
-0.016499
-0.0167326
-0.0136683
-0.0132928
-0.0127099
-0.0155972
-0.0188932
-0.0213156
-0.0251003
-0.0298804
-0.0345235
-0.0336993
-0.0336271
-0.0260829
-0.0290149
-0.0290607
-0.0244577
-0.0187749
-0.0244306
-0.0219379
-0.0208692
-0.0148568
-0.0131298
-0.0154593
-0.015155
-0.014482
-0.0108081
-0.0103117
-0.00987789
-0.0108087
-0.00884158
-0.00916401
-0.0097954
-0.00836486
-0.00641442
-0.00576368
-0.00556527
-0.0052864
-0.00583094
-0.00494798
-0.00710155
-0.00704894
-0.00850535
-0.00774097
-0.0102535
-0.0102504
-0.0120468
-0.00921014
-0.0120323
-0.0108817
-0.0145381
-0.0145398
-0.0172631
-0.0132225
-0.0172615
-0.015545
-0.0207207
-0.0207385
-0.0243966
-0.0188228
-0.0244206
-0.0218391
-0.0289446
-0.0289897
-0.0335391
-0.0261344
-0.0336201
-0.0298207
-0.0392593
-0.0393889
-0.0446056
-0.0351573
-0.0448432
-0.0394096
-0.0513733
-0.0517277
-0.0573468
-0.0455007
-0.0578182
-0.0500795
-0.0638807
-0.0644803
-0.0621995
-0.0583579
-0.0622268
-0.0548425
-0.0597311
-0.0575716
-0.0523469
-0.0721179
-0.0480443
-0.0624703
-0.0479204
-0.0458674
-0.0562882
-0.0564865
-0.0504068
-0.0538399
-0.0542658
-0.0485305
-0.0431468
-0.0422799
-0.0317732
-0.0324419
-0.0271255
-0.0236059
-0.0231906
-0.0230205
-0.0164189
-0.0115577
-0.00830084
-0.00635563
-0.00571561
-0.0041486
-0.0057846
-0.00511601
-0.00559434
-0.0056296
-0.00546117
-0.00564198
-0.00663303
-0.00493171
-0.00606134
-0.00587236
-0.00591677
-0.00611697
-0.00480881
-0.00604156
-0.00593112
-0.00592331
-0.00663618
-0.00459463
-0.00463146
-0.00462391
-0.00460592
-0.00459215
-0.00456659
-0.00716489
-0.00461702
-0.00460194
-0.00460318
-0.00716712
-0.00462416
-0.00668383
-0.00736518
-0.0073297
-0.00643641
-0.00641703
-0.00599861
-0.0077713
-0.0109526
-0.0156524
-0.0219679
-0.0299389
-0.0284731
-0.0253297
-0.0297559
-0.0291891
-0.0278851
-0.0307362
-0.0359202
-0.0409795
-0.0455265
-0.0551967
-0.045321
-0.0462984
-0.036559
-0.0418026
-0.0343334
-0.0368579
-0.0374613
-0.031445
-0.0416525
-0.0534363
-0.0674287
-0.0671423
-0.0673147
-0.0579527
-0.0536498
-0.0563246
-0.0620803
-0.0522062
-0.0593832
-0.0852583
-0.0769686
-0.0755744
-0.0780826
-0.0499206
-0.0634403
-0.0665746
-0.0798642
-0.05138
-0.0656578
-0.0668606
-0.0802454
-0.0516001
-0.0648403
-0.0677104
-0.0800778
-0.0528222
-0.0642878
-0.072143
-0.0999273
-0.0790757
-0.0773325
-0.09798
-0.0959974
-0.0764055
-0.0560476
-0.0789304
-0.0700639
-0.0625198
-0.0661331
-0.0701414
-0.0550979
-0.072759
-0.0832546
-0.0565121
-0.0681382
-0.0549977
-0.0570559
-0.0733797
-0.0631765
-0.0478179
-0.0587638
-0.0508577
-0.0380713
-0.0448781
-0.0390328
-0.0287477
-0.0334059
-0.0288636
-0.0210643
-0.0241877
-0.0206983
-0.0149726
-0.0170878
-0.0145041
-0.0104728
-0.0118954
-0.010162
-0.00725946
-0.00846994
-0.0074191
-0.00540409
-0.00642541
-0.0051661
-0.00583854
-0.00562021
-0.00633014
-0.00820933
-0.00911203
-0.0063804
-0.00780974
-0.00538043
-0.0064473
-0.00583671
-0.00412451
-0.00540646
-0.0055989
-0.00661663
-0.00561105
-0.00576249
-0.00641776
-0.00836416
-0.0116421
-0.0116526
-0.0165773
-0.0232612
-0.0217459
-0.0209425
-0.0200718
-0.0223172
-0.0266025
-0.0252472
-0.0181285
-0.0194663
-0.0197916
-0.0207686
-0.0207785
-0.0156069
-0.0172688
-0.020705
-0.0188235
-0.0244226
-0.028917
-0.0261296
-0.0336098
-0.0392208
-0.0351362
-0.0447743
-0.0513728
-0.0454639
-0.0575751
-0.0485316
-0.0492138
-0.0603548
-0.0604999
-0.0536634
-0.0416445
-0.0314319
-0.0230237
-0.0164333
-0.0115746
-0.00831422
-0.006379
-0.00573946
-0.00412529
-0.00559741
-0.00560467
-0.00574773
-0.00639038
-0.00833667
-0.0116135
-0.0165052
-0.0231322
-0.0315779
-0.0418357
-0.0537986
-0.0685394
-0.0680721
-0.055395
-0.105025
-0.0773925
-0.0742273
-0.0669168
-0.0802203
-0.0516691
-0.0518082
-0.0562705
-0.0828681
-0.0535575
-0.0543771
-0.0554383
-0.0833289
-0.0538025
-0.054617
-0.0550677
-0.0831609
-0.0552639
-0.0562281
-0.0618457
-0.105667
-0.0800551
-0.0781042
-0.0784541
-0.0777765
-0.062529
-0.0585378
-0.0621064
-0.105277
-0.0614093
-0.0635523
-0.0827986
-0.0659662
-0.0626308
-0.0643851
-0.0733596
-0.0546431
-0.0725791
-0.0726206
-0.0557739
-0.0737722
-0.0651796
-0.0626541
-0.0658694
-0.0725941
-0.0723498
-0.0729825
-0.072025
-0.062695
-0.0621104
-0.0676247
-0.082949
-0.071148
-0.0562948
-0.0757326
-0.066579
-0.0562728
-0.091268
-0.0492842
-0.0645106
-0.0540815
-0.0630715
-0.0577718
-0.0454784
-0.0523858
-0.0462874
-0.0366064
-0.0404163
-0.035702
-0.0271517
-0.0305429
-0.0262002
-0.0203758
-0.0220218
-0.0189477
-0.0141171
-0.0156963
-0.0131748
-0.0100893
-0.01082
-0.0093112
-0.00691807
-0.00763095
-0.00677635
-0.00516566
-0.00568049
-0.00395772
-0.00706691
-0.00511015
-0.00428336
-0.00787545
-0.00563455
-0.00589561
-0.00769853
-0.00558786
-0.0058163
-0.00757234
-0.0055587
-0.00571895
-0.00765167
-0.00566699
-0.00559156
-0.00767991
-0.00415605
-0.00545005
-0.00662983
-0.00569669
-0.0060234
-0.00775997
-0.00659428
-0.00849025
-0.00848866
-0.00773254
-0.0102218
-0.00889131
-0.0120437
-0.012815
-0.00916039
-0.0155617
-0.0105677
-0.0183501
-0.0130944
-0.0221518
-0.0150081
-0.0259517
-0.0183926
-0.0308914
-0.0208144
-0.0356971
-0.0250999
-0.0417563
-0.0279603
-0.0476289
-0.0331877
-0.054649
-0.036393
-0.0615463
-0.0424609
-0.0684461
-0.0456011
-0.0536653
-0.0651461
-0.0636461
-0.0505465
-0.0589768
-0.0434781
-0.0524265
-0.0508898
-0.0394398
-0.045812
-0.0334919
-0.0400121
-0.0389604
-0.0298339
-0.0343725
-0.0249519
-0.0296022
-0.0288282
-0.0218562
-0.0250258
-0.0179943
-0.0211989
-0.020694
-0.015569
-0.0176987
-0.01267
-0.0148775
-0.0145403
-0.0108986
-0.0123888
-0.00882951
-0.0104345
-0.0102574
-0.007756
-0.00876631
-0.00632038
-0.00798225
-0.00768923
-0.00604303
-0.00523739
-0.00477843
-0.00419033
-0.00562166
-0.00583897
-0.00516061
-0.00641717
-0.00537952
-0.00580938
-0.00529361
-0.00556966
-0.00560801
-0.0055771
-0.00661114
-0.00567925
-0.00592356
-0.00599075
-0.00778678
-0.00637596
-0.00909823
-0.00648907
-0.0109517
-0.0073802
-0.00980392
-0.00711316
-0.00706147
-0.00771007
-0.00640949
-0.00821298
-0.00501724
-0.00710514
-0.00499889
-0.00492902
-0.00604785
-0.00591192
-0.00586335
-0.00591925
-0.00593342
-0.00827846
-0.00643413
-0.00602587
-0.00778955
-0.00779416
-0.00778067
-0.0102721
-0.0102731
-0.00775573
-0.00975759
-0.00710573
-0.00707682
-0.00771502
-0.00660683
-0.00851522
-0.0102406
-0.00921344
-0.0120463
-0.0145264
-0.013225
-0.0143855
-0.010981
-0.0109319
-0.0156907
-0.0220193
-0.0219198
-0.0220019
-0.0156829
-0.0109764
-0.0109102
-0.0109448
-0.00776772
-0.00773761
-0.00848473
-0.0102349
-0.0109584
-0.0128245
-0.015567
-0.0183619
-0.0105787
-0.0145103
-0.00916343
-0.0118892
-0.00739175
-0.0101675
-0.00649488
-0.00846579
-0.00724593
-0.00694414
-0.0093023
-0.00884363
-0.0108636
-0.0123879
-0.0109084
-0.0145432
-0.0131489
-0.0172141
-0.0172645
-0.0155834
-0.0206413
-0.0187496
-0.0243412
-0.0243509
-0.0218173
-0.0287558
-0.0259523
-0.0334513
-0.0334667
-0.0297103
-0.0389773
-0.03369
-0.0445605
-0.050961
-0.0436869
-0.0575192
-0.0631265
-0.0540262
-0.0600499
-0.0537634
-0.0420117
-0.0318851
-0.0234092
-0.0166869
-0.0116766
-0.00830965
-0.0072928
-0.00657549
-0.00468739
-0.00465901
-0.00468405
-0.005013
-0.00826631
-0.00643042
-0.00642761
-0.00819276
-0.00500888
-0.00492338
-0.00606127
-0.00590875
-0.00622569
-0.00590772
-0.00822354
-0.00641238
-0.00599415
-0.00779985
-0.00638347
-0.00711135
-0.00701235
-0.00733086
-0.00663455
-0.00460425
-0.00459013
-0.00716674
-0.00456524
-0.00465022
-0.00710922
-0.00701452
-0.00778738
-0.00737322
-0.00590993
-0.00793771
-0.00800603
-0.00605237
-0.00768514
-0.00656334
-0.00853169
-0.00847321
-0.00777727
-0.0102313
-0.00920096
-0.0120248
-0.0109035
-0.0145017
-0.0131863
-0.0172335
-0.0172189
-0.0155178
-0.0206754
-0.0181138
-0.0243458
-0.0288242
-0.0250967
-0.0334618
-0.0298599
-0.0219151
-0.0156244
-0.0109382
-0.00776314
-0.00700751
-0.00732701
-0.00663005
-0.00690809
-0.00835335
-0.00702028
-0.0071157
-0.00701184
-0.00690975
-0.00835142
-0.00778563
-0.00776204
-0.0109723
-0.0109082
-0.0156781
-0.0155715
-0.0165344
-0.0231728
-0.0316442
-0.0317918
-0.0421462
-0.039352
-0.0383187
-0.0497654
-0.0605755
-0.0518605
-0.0741874
-0.0565594
-0.107574
-0.0759523
-0.0745193
-0.0703981
-0.0861715
-0.0783571
-0.0811361
-0.0779608
-0.106908
-0.0749776
-0.0741228
-0.0668501
-0.0798666
-0.051528
-0.0525638
-0.056878
-0.0824181
-0.0533288
-0.0552829
-0.0562432
-0.0828712
-0.0535747
-0.0553617
-0.0560304
-0.082697
-0.0551475
-0.0566167
-0.0782751
-0.059811
-0.0502674
-0.0501691
-0.0577209
-0.0615315
-0.0440467
-0.0554417
-0.03689
-0.0441448
-0.0534692
-0.0394483
-0.0505737
-0.0581361
-0.0504818
-0.0626159
-0.0679689
-0.0577036
-0.0540079
-0.0457314
-0.0559501
-0.0543429
-0.0700807
-0.0735209
-0.0721827
-0.0633854
-0.0503403
-0.0627639
-0.0555549
-0.0630597
-0.0502769
-0.0627568
-0.0556075
-0.0631352
-0.0504298
-0.0628314
-0.0734734
-0.0718475
-0.0627958
-0.0582292
-0.0698036
-0.0833105
-0.0623976
-0.0788318
-0.0800416
-0.0768754
-0.0635216
-0.061408
-0.0618305
-0.104723
-0.0620685
-0.0688692
-0.101135
-0.080741
-0.0773783
-0.0624145
-0.0613014
-0.0784591
-0.0562249
-0.0560323
-0.0777598
-0.0587672
-0.0538287
-0.0536402
-0.0419946
-0.0318974
-0.0234222
-0.0166961
-0.0116826
-0.0083133
-0.00729635
-0.00658058
-0.00456561
-0.00459346
-0.0060337
-0.00586377
-0.00591063
-0.00756522
-0.00581908
-0.00481361
-0.00496535
-0.00551413
-0.0050368
-0.00480235
-0.00563819
-0.0078853
-0.00590229
-0.00793813
-0.00559222
-0.00770408
-0.00622744
-0.00611749
-0.00591029
-0.00819608
-0.00501009
-0.00501514
-0.00711107
-0.00467355
-0.00467081
-0.00501656
-0.00500627
-0.00491879
-0.00567233
-0.0077494
-0.00567675
-0.00826436
-0.00642936
-0.00642706
-0.00591156
-0.004967
-0.00583254
-0.00528492
-0.00558045
-0.00576233
-0.00641305
-0.00837195
-0.0116626
-0.016574
-0.0232275
-0.031707
-0.0420005
-0.0419373
-0.0540183
-0.0541062
-0.067985
-0.0558636
-0.0591535
-0.0594615
-0.0963411
-0.0687072
-0.0749763
-0.077334
-0.104743
-0.055197
-0.0593725
-0.0595331
-0.0562472
-0.0603124
-0.0613561
-0.0946746
-0.0630551
-0.0650937
-0.0535175
-0.0616053
-0.0714715
-0.0593032
-0.0497263
-0.0539812
-0.068647
-0.0684389
-0.0602452
-0.0605136
-0.0498206
-0.0377631
-0.0277403
-0.0198942
-0.0139827
-0.0137901
-0.00966892
-0.00967051
-0.0070527
-0.00711748
-0.00772526
-0.0108412
-0.0154562
-0.0216822
-0.0295927
-0.0391072
-0.0490401
-0.0483296
-0.0484758
-0.0369903
-0.0273107
-0.0196129
-0.0195918
-0.0137847
-0.0139676
-0.00980256
-0.0102474
-0.0109657
-0.0128279
-0.0155775
-0.0183671
-0.0127579
-0.0145413
-0.0120534
-0.00889733
-0.0101623
-0.00776818
-0.00774171
-0.00848463
-0.00641542
-0.00822137
-0.00556991
-0.00599864
-0.00701007
-0.00711259
-0.00708865
-0.0047017
-0.00465899
-0.00606775
-0.00590807
-0.00595921
-0.00603273
-0.00456432
-0.00716927
-0.00603339
-0.00604752
-0.00493651
-0.00611693
-0.00603454
-0.0058562
-0.00590193
-0.00592249
-0.00622194
-0.0059051
-0.00592367
-0.00606772
-0.00611711
-0.00469309
-0.00503608
-0.00550811
-0.0070828
-0.00496381
-0.00480635
-0.00710796
-0.0070166
-0.00732889
-0.00662896
-0.00690848
-0.00701839
-0.00779009
-0.00737553
-0.00650058
-0.0103905
-0.00917181
-0.0109458
-0.0108818
-0.0156376
-0.0155358
-0.0172645
-0.0207281
-0.0222047
-0.0259576
-0.0310094
-0.0357115
-0.0251861
-0.0289349
-0.0244076
-0.0181462
-0.0206835
-0.0148354
-0.0131116
-0.0208096
-0.0184229
-0.0219397
-0.0218137
-0.0219971
-0.0218655
-0.0299709
-0.0298529
-0.0394806
-0.0394301
-0.0375432
-0.0337383
-0.0397191
-0.0384932
-0.0287015
-0.0207211
-0.014585
-0.0101693
-0.0100267
-0.00986234
-0.0117341
-0.0143707
-0.0141156
-0.016771
-0.0204058
-0.0200329
-0.0167729
-0.0117358
-0.0100379
-0.0100249
-0.00985853
-0.00838604
-0.0117724
-0.0168233
-0.0235947
-0.0235265
-0.0282403
-0.0277007
-0.0320288
-0.0378302
-0.0370648
-0.0421274
-0.0488035
-0.049693
-0.0501517
-0.0742354
-0.0522403
-0.0782964
-0.0597341
-0.0584627
-0.0749417
-0.0550133
-0.0774295
-0.0790375
-0.0812692
-0.0776936
-0.10612
-0.074946
-0.0689364
-0.064772
-0.0819759
-0.0828624
-0.0613984
-0.0691053
-0.0795818
-0.0828075
-0.0765718
-0.0749206
-0.105504
-0.0780302
-0.0815156
-0.0817632
-0.0819741
-0.0815631
-0.0777167
-0.0820382
-0.0731324
-0.0677139
-0.0800812
-0.0528513
-0.0515741
-0.0560405
-0.0827188
-0.055103
-0.0541217
-0.0550791
-0.0832047
-0.0551691
-0.0543681
-0.0546981
-0.0830003
-0.0564009
-0.0619645
-0.10504
-0.0823412
-0.0770722
-0.0637519
-0.061332
-0.0777752
-0.0587355
-0.0538191
-0.0421332
-0.0320063
-0.0235072
-0.016759
-0.0117273
-0.00834846
-0.0100277
-0.0101599
-0.00890099
-0.0120496
-0.0145267
-0.0127629
-0.0172561
-0.0207094
-0.0221899
-0.0259498
-0.0309897
-0.0357011
-0.0208664
-0.0288769
-0.0184069
-0.0241887
-0.0150362
-0.0207084
-0.0131001
-0.0170854
-0.0149547
-0.0143117
-0.0188778
-0.0180244
-0.0221349
-0.0250128
-0.0218654
-0.0288199
-0.0258899
-0.0335104
-0.0334936
-0.0298048
-0.0387994
-0.034808
-0.0445398
-0.0393012
-0.0507043
-0.0450535
-0.0574986
-0.0575969
-0.0502862
-0.063159
-0.0555984
-0.062908
-0.0629997
-0.0503107
-0.0574891
-0.0575363
-0.0628309
-0.0555408
-0.0586427
-0.050391
-0.0394313
-0.0299189
-0.0219651
-0.0156627
-0.0109675
-0.0103862
-0.0148287
-0.0156356
-0.0155286
-0.0219359
-0.0218029
-0.0243929
-0.0289108
-0.0251941
-0.0335689
-0.0392195
-0.0420826
-0.0476306
-0.055403
-0.0615442
-0.0368849
-0.0508889
-0.0333749
-0.0448881
-0.0281387
-0.0390523
-0.0251601
-0.0334126
-0.02872
-0.0274628
-0.0355971
-0.0337212
-0.0409566
-0.0455009
-0.0394496
-0.050577
-0.0449434
-0.0580937
-0.0573013
-0.0503452
-0.0633325
-0.0552792
-0.0626444
-0.0679374
-0.0504906
-0.0576895
-0.0539584
-0.0559093
-0.0543054
-0.0577183
-0.0537388
-0.0456811
-0.0477793
-0.0587723
-0.0632126
-0.0427062
-0.0495987
-0.0389898
-0.0294995
-0.0216117
-0.0154039
-0.0108025
-0.00769707
-0.00581459
-0.00528861
-0.00584438
-0.00516568
-0.00396129
-0.00478543
-0.0056873
-0.00523745
-0.00707898
-0.00427822
-0.00509789
-0.00662427
-0.00605802
-0.00546394
-0.00603327
-0.00770427
-0.00660093
-0.00847468
-0.0077575
-0.0102282
-0.00919426
-0.0120341
-0.0120094
-0.0108712
-0.0145113
-0.0127463
-0.0172365
-0.013958
-0.0137792
-0.0145146
-0.00968321
-0.0102465
-0.00831239
-0.00830452
-0.00634798
-0.00571532
-0.00560885
-0.00578177
-0.00577145
-0.00560102
-0.00630087
-0.00518175
-0.00677212
-0.00633228
-0.00876412
-0.0077652
-0.0102577
-0.00917054
-0.0120148
-0.0120518
-0.0109257
-0.0145056
-0.0131943
-0.0172363
-0.0155543
-0.0206444
-0.0187402
-0.0243397
-0.0243368
-0.0217778
-0.0287575
-0.0269412
-0.0195072
-0.0206501
-0.0164145
-0.0163995
-0.0115643
-0.00975838
-0.0102775
-0.00711656
-0.00783764
-0.00637693
-0.00700502
-0.00765348
-0.00826177
-0.00831289
-0.00958841
-0.0104625
-0.0116733
-0.0100096
-0.0132281
-0.0126796
-0.0177116
-0.0155759
-0.0206958
-0.0186874
-0.0243376
-0.0243833
-0.0218587
-0.0287399
-0.0259631
-0.0334629
-0.029751
-0.0388458
-0.0348054
-0.0445378
-0.0445906
-0.039268
-0.050699
-0.0393841
-0.0377705
-0.0281851
-0.0276836
-0.0235149
-0.0167644
-0.011731
-0.00835137
-0.00985933
-0.0100233
-0.014364
-0.0145682
-0.0109723
-0.0156703
-0.0219761
-0.0286307
-0.0282237
-0.0203941
-0.0200249
-0.0141104
-0.0143736
-0.0100324
-0.00920593
-0.010255
-0.00775825
-0.0102426
-0.0120381
-0.0109077
-0.0145119
-0.014525
-0.0120309
-0.0120361
-0.0109283
-0.014512
-0.0145487
-0.0120545
-0.0102751
-0.00777723
-0.0102379
-0.00850905
-0.00848203
-0.00848996
-0.00849614
-0.00777156
-0.0102556
-0.0102421
-0.00920329
-0.0120224
-0.0109214
-0.0145277
-0.0145149
-0.0131983
-0.0172271
-0.0155807
-0.0206792
-0.0206517
-0.0206487
-0.0206654
-0.0155591
-0.0172479
-0.0172403
-0.0132015
-0.0172425
-0.0155888
-0.0206476
-0.0207077
-0.0172677
-0.0131601
-0.0145461
-0.0149038
-0.0109086
-0.01202
-0.00917782
-0.0102594
-0.0104724
-0.00776421
-0.00853331
-0.00847673
-0.00783145
-0.00603156
-0.00771009
-0.00660547
-0.00778048
-0.00602488
-0.00776767
-0.00660326
-0.00771724
-0.00602731
-0.0078144
-0.00847871
-0.00851463
-0.0065616
-0.00711607
-0.00632051
-0.00570612
-0.00416753
-0.00575691
-0.00548312
-0.00561658
-0.00562731
-0.00414904
-0.00570069
-0.00563776
-0.00547562
-0.00576816
-0.00416939
-0.00771141
-0.00572547
-0.00558448
-0.00492158
-0.00663023
-0.0058745
-0.00569924
-0.00570884
-0.00586107
-0.00547644
-0.00604084
-0.00661851
-0.00479561
-0.00572006
-0.00770399
-0.00558583
-0.00819035
-0.00642402
-0.00778635
-0.0077882
-0.0109722
-0.0156717
-0.0204009
-0.0187592
-0.0243516
-0.0218212
-0.028752
-0.0287799
-0.0287456
-0.0288612
-0.0218651
-0.0243614
-0.0243866
-0.0187044
-0.0207002
-0.0212575
-0.0155769
-0.0172238
-0.0177172
-0.0126932
-0.0132426
-0.0156677
-0.014334
-0.0188976
-0.0221633
-0.0201621
-0.026357
-0.0305635
-0.0275019
-0.0356354
-0.0410011
-0.0363503
-0.0461314
-0.0468431
-0.0423486
-0.0360282
-0.0320388
-0.0268136
-0.0234595
-0.0193702
-0.0167029
-0.0136648
-0.0116847
-0.0100207
-0.0108825
-0.0123894
-0.0088535
-0.00930872
-0.00766461
-0.00695727
-0.00826788
-0.00959415
-0.00700693
-0.0067774
-0.00633925
-0.00800987
-0.00605012
-0.00768665
-0.00656801
-0.00712436
-0.0063677
-0.00577255
-0.00428317
-0.00510752
-0.00707783
-0.00396305
-0.00569372
-0.00518408
-0.00630035
-0.0056018
-0.00478858
-0.00523961
-0.00605535
-0.00547295
-0.00662405
-0.00560853
-0.00570835
-0.00632611
-0.00827683
-0.00830154
-0.01158
-0.0164584
-0.0230473
-0.0218668
-0.0288264
-0.0296839
-0.0250227
-0.0243524
-0.0196813
-0.0138985
-0.00977418
-0.00973715
-0.0115312
-0.0163533
-0.0228641
-0.0272149
-0.025914
-0.0334944
-0.0298125
-0.0387991
-0.0390483
-0.0388992
-0.0403449
-0.0298411
-0.0335323
-0.0343623
-0.0250392
-0.0208722
-0.0275713
-0.0272534
-0.0368675
-0.0373241
-0.0392447
-0.0421108
-0.0476376
-0.0334009
-0.037409
-0.0283623
-0.0251806
-0.0298991
-0.0297801
-0.0335951
-0.0394143
-0.039386
-0.0447842
-0.033908
-0.0383902
-0.0299331
-0.0394464
-0.0496338
-0.0488309
-0.0378177
-0.0370637
-0.0276914
-0.0282216
-0.0320161
-0.0321123
-0.0320302
-0.0235284
-0.0204256
-0.0203951
-0.0143655
-0.0141091
-0.0143664
-0.0145638
-0.0206765
-0.0181532
-0.0198554
-0.01398
-0.0138085
-0.0138457
-0.0139122
-0.00970937
-0.00968598
-0.00706077
-0.0071185
-0.00557163
-0.00980919
-0.0196876
-0.0196254
-0.0272968
-0.0274003
-0.0275853
-0.0370695
-0.0369191
-0.0373654
-0.0276011
-0.0447362
-0.0514742
-0.0440604
-0.057635
-0.049095
-0.0483901
-0.0603835
-0.0605805
-0.0592573
-0.0715768
-0.0960533
-0.0979345
-0.0560405
-0.0721233
-0.0999458
-0.079058
-0.0625455
-0.0777549
-0.078613
-0.0636498
-0.0618193
-0.105843
-0.0805734
-0.077963
-0.101314
-0.0866787
-0.0867661
-0.0817827
-0.0790538
-0.0552506
-0.0776165
-0.0585743
-0.0537077
-0.042128
-0.0378604
-0.0282657
-0.0282229
-0.0299741
-0.0298927
-0.0297632
-0.0394054
-0.0393647
-0.0373937
-0.028349
-0.0207996
-0.0296593
-0.0343479
-0.029839
-0.0388927
-0.0347387
-0.0447835
-0.0445194
-0.0393635
-0.050585
-0.0450277
-0.0507208
-0.0394199
-0.0299107
-0.0282076
-0.0286202
-0.0383768
-0.0339187
-0.0378146
-0.0370592
-0.0276879
-0.0200226
-0.0203906
-0.0156613
-0.010965
-0.00778282
-0.010261
-0.00970768
-0.0120313
-0.00708122
-0.00850884
-0.00778695
-0.00563707
-0.00587908
-0.00563521
-0.00411251
-0.00573058
-0.00637041
-0.0138102
-0.0138741
-0.014547
-0.0115925
-0.0136554
-0.0156467
-0.0166863
-0.0164748
-0.0193563
-0.0212391
-0.0234362
-0.0201342
-0.0263281
-0.0250115
-0.0305259
-0.0267935
-0.0320073
-0.0314547
-0.0230703
-0.0196451
-0.0207022
-0.0195474
-0.0206627
-0.02293
-0.0271634
-0.0288508
-0.0269956
-0.0334646
-0.0312183
-0.0364146
-0.03903
-0.0360032
-0.0403136
-0.0423106
-0.0363023
-0.0460873
-0.0441075
-0.0534348
-0.0468179
-0.0416047
-0.0532694
-0.0633827
-0.0630045
-0.062712
-0.0675948
-0.0642437
-0.0580661
-0.0471479
-0.0510513
-0.0412076
-0.0527163
-0.0628408
-0.0687213
-0.0653912
-0.0575856
-0.0465725
-0.036094
-0.0445757
-0.0388677
-0.0312428
-0.0229488
-0.0412423
-0.0527922
-0.0629975
-0.069062
-0.0654439
-0.0575833
-0.0465203
-0.0360278
-0.0388453
-0.0366108
-0.0273307
-0.0197723
-0.0153758
-0.0107905
-0.00768763
-0.0072121
-0.0105562
-0.0215492
-0.0293347
-0.0386704
-0.0473913
-0.0583398
-0.0633576
-0.0702877
-0.0651309
-0.0528121
-0.0589772
-0.0638
-0.0628453
-0.0528632
-0.0525128
-0.041065
-0.031106
-0.0228427
-0.0163346
-0.0115161
-0.00826627
-0.00826575
-0.0063292
-0.00709874
-0.00709603
-0.00563492
-0.00662828
-0.00560031
-0.00576685
-0.00635594
-0.00828386
-0.00976632
-0.00917019
-0.0119997
-0.0120548
-0.0109676
-0.0100297
-0.00985632
-0.00690712
-0.0100171
-0.0101555
-0.00736943
-0.00590606
-0.00793208
-0.00820031
-0.00534436
-0.0103823
-0.0145585
-0.0143699
-0.0141056
-0.0143524
-0.0203718
-0.0200177
-0.0203963
-0.0156643
-0.0219696
-0.021976
-0.0299281
-0.0378056
-0.0348242
-0.038882
-0.0297521
-0.0388233
-0.0446005
-0.0392961
-0.0506301
-0.0507502
-0.0445128
-0.0446213
-0.039368
-0.0505645
-0.05108
-0.0445107
-0.0347706
-0.044814
-0.0455182
-0.0337577
-0.0281456
-0.0364833
-0.0314234
-0.0415627
-0.0532087
-0.0537694
-0.0577282
-0.0630007
-0.0627247
-0.0633145
-0.0676183
-0.0642352
-0.0581336
-0.0472296
-0.0410872
-0.0311282
-0.0362004
-0.0270783
-0.0334954
-0.0334572
-0.0334906
-0.0334599
-0.029816
-0.0389367
-0.0388489
-0.0348257
-0.0445542
-0.0394013
-0.0508327
-0.0507094
-0.0450661
-0.0574753
-0.0577139
-0.0575745
-0.0450033
-0.0496529
-0.0488774
-0.0421437
-0.0422272
-0.0477648
-0.053707
-0.0502803
-0.0502496
-0.0746071
-0.0545499
-0.0517308
-0.0774575
-0.0789518
-0.0817911
-0.0777457
-0.0816565
-0.0820118
-0.0786046
-0.0542909
-0.0765379
-0.0568603
-0.0753065
-0.0756384
-0.0753131
-0.0755107
-0.0746924
-0.0642501
-0.0810384
-0.105548
-0.0563744
-0.0783423
-0.0858975
-0.0815444
-0.086795
-0.0813345
-0.0773479
-0.102596
-0.0811011
-0.0566113
-0.062053
-0.105342
-0.0614681
-0.0776294
-0.0563592
-0.0759111
-0.0569887
-0.053826
-0.0477979
-0.0488258
-0.0488355
-0.0496197
-0.0488194
-0.0377888
-0.0488311
-0.0478411
-0.0370648
-0.0378121
-0.028218
-0.0286058
-0.0299314
-0.0394746
-0.0394366
-0.0488349
-0.050401
-0.0477168
-0.0427319
-0.0696752
-0.0474805
-0.0605444
-0.0636991
-0.0568382
-0.060311
-0.0661263
-0.0746873
-0.0543065
-0.0515552
-0.0776367
-0.0585788
-0.0569923
-0.075506
-0.0541124
-0.076729
-0.0787053
-0.0790246
-0.0819813
-0.0732734
-0.0810042
-0.105482
-0.0783335
-0.0815675
-0.0817942
-0.081908
-0.0821292
-0.0787
-0.0546217
-0.0767282
-0.0806272
-0.0819592
-0.0805686
-0.0788138
-0.0544642
-0.0769232
-0.0571236
-0.0759062
-0.0760926
-0.0683879
-0.0504259
-0.0504006
-0.0682518
-0.0679247
-0.0479068
-0.050536
-0.0504075
-0.0586505
-0.0678944
-0.0681675
-0.0684353
-0.063066
-0.0750872
-0.0571746
-0.046361
-0.041393
-0.0313501
-0.0230081
-0.0164316
-0.0115577
-0.0138906
-0.0172655
-0.017202
-0.0131517
-0.014827
-0.0206678
-0.0186911
-0.024316
-0.0243908
-0.0218592
-0.0288137
-0.0287596
-0.02434
-0.0187553
-0.0243647
-0.0196034
-0.016329
-0.011518
-0.0138532
-0.0138504
-0.00973463
-0.0196081
-0.0228224
-0.0310678
-0.0410047
-0.046694
-0.0576072
-0.057405
-0.057601
-0.0466605
-0.0361747
-0.0270666
-0.0259716
-0.0271686
-0.033528
-0.0334527
-0.0258934
-0.0283438
-0.0207935
-0.0383619
-0.0347444
-0.0445875
-0.0446637
-0.0363517
-0.0358177
-0.0267365
-0.0193366
-0.013644
-0.00957395
-0.00699056
-0.00559165
-0.00628993
-0.00825321
-0.0116727
-0.0166814
-0.0196662
-0.0234357
-0.0319485
-0.0421827
-0.0469733
-0.0579615
-0.0554468
-0.0576906
-0.0524391
-0.0525496
-0.0626606
-0.068653
-0.0653554
-0.0576914
-0.0625714
-0.0684888
-0.065579
-0.0625607
-0.069559
-0.0653803
-0.0693869
-0.0374052
-0.0450418
-0.0572628
-0.0449779
-0.0535345
-0.0637785
-0.0776119
-0.0806727
-0.0810925
-0.0858849
-0.0813181
-0.0867674
-0.0867616
-0.0866558
-0.0807498
-0.0818035
-0.0864856
-0.102483
-0.0825956
-0.0868845
-0.0932744
-0.0915501
-0.103028
-0.103081
-0.101498
-0.102767
-0.102631
-0.0686816
-0.0687228
-0.0478023
-0.0782748