/*--------------------------------*- C++ -*----------------------------------*\
| =========                 |                                                 |
| \\      /  F ield         | OpenFOAM: The Open Source CFD Toolbox           |
|  \\    /   O peration     | Version:  2306                                  |
|   \\  /    A nd           | Website:  www.openfoam.com                      |
|    \\/     M anipulation  |                                                 |
\*---------------------------------------------------------------------------*/
FoamFile
{
    version     2.0;
    format      ascii;
    arch        "LSB;label=32;scalar=64";
    class       volScalarField;
    location    "2.4";
    object      gradTx;
}
// * * * * * * * * * * * * * * * * * * * * * * * * * * * * * * * * * * * * * //

dimensions      [0 -1 0 1 0 0 0];

internalField   nonuniform List<scalar> 
5322
(
-0.0183166
0.000983751
0.00105484
-4.60763e-06
-7.24996e-05
-6.42887e-05
-4.62668e-05
-3.33946e-05
-2.56258e-05
-1.72109e-05
-1.03258e-05
6.63296e-05
9.60471e-05
-0.00131234
-2.20377e-05
0.0024252
-0.00189369
9.99771e-06
-0.00153714
0.00131457
-0.00176185
0.0021489
-0.00227279
0.00323002
-0.00334599
0.00445017
-0.00448505
0.00627048
-0.00629154
0.0082081
-0.00780013
0.0112429
-0.00831826
0.0157641
0.00127418
0.0230226
0.0163213
-0.00646936
0.0179378
-0.00106494
-0.0170247
0.017072
-0.00103392
-0.0181527
0.0180597
-0.000617697
-0.0192912
0.0169843
-0.000401974
-0.0202511
-0.0201036
-0.0288849
-0.00954027
0.018324
-0.00120773
-0.0299473
-0.000917937
0.0284682
-0.000344251
-0.0284628
-0.00012365
0.0277273
-0.000146088
-0.0279541
2.66159e-05
0.0273564
0.000404663
-0.0276853
0.00144377
0.0228305
0.00130201
-0.0219668
0.0249451
-0.025714
0.0247442
-0.0252091
0.0252311
-0.0252424
0.028754
-0.0210574
0.0099335
-0.0151942
-0.0102317
0.0160688
0.00135535
-0.00722967
0.0116284
-0.0320897
-0.010258
0.035442
-0.00160433
0.000368782
0.000645883
0.00405991
0.0211741
-0.00426601
0.000227627
-0.00159217
0.011967
-0.0283474
-0.0282915
0.0584204
-0.0016031
0.0163796
0.0267374
0.000518762
0.00027899
0.00022033
0.000109129
3.67213e-05
4.70526e-06
-7.65847e-06
-1.46963e-05
-2.03708e-05
1.87e-05
-1.08477e-05
-0.000785572
-0.000761187
9.57387e-05
0.000475474
1.99991e-05
0.000704526
-0.000845311
-6.53571e-05
-0.000210084
0.00131463
0.00107149
0.000286046
0.000841699
0.000532516
0.000400263
0.000904371
0.000443081
0.000476653
0.000919988
0.0003848
0.000760481
0.00104662
0.00118017
4.97217e-05
-0.000875854
4.08922e-05
0.00059926
-0.000736537
-0.00080245
0.000128633
0.000314614
0.000165423
-0.000627154
-0.000691271
0.000146238
0.000188221
0.000232229
-0.000683456
-0.00064335
0.000147804
0.000116753
0.000378141
-0.00072893
0.000958787
-0.00214728
-0.00284671
0.00278402
-0.00361849
-0.000178267
-0.00217835
3.8872e-05
0.00199374
-0.000465403
0.00217896
0.00107458
0.00160984
-0.00257746
0.000969509
-0.00222442
0.00165831
0.00215614
-0.0029795
0.000186194
-0.00253227
0.00264437
0.0032882
-0.00412431
0.000158316
-0.00345741
0.00395673
0.00483563
-0.00589889
0.000245707
-0.00492597
0.00574095
0.00697872
-0.0083936
0.000345345
-0.00701373
0.00801623
0.00977934
-0.0117344
0.000458868
-0.00982728
0.0107266
0.0132227
-0.0160088
0.000605772
-0.0133881
0.0136998
0.0171837
-0.0209781
0.000828464
-0.0173162
0.0163573
0.0203807
-0.00378537
0.0114483
-0.0280737
-0.0286307
0.0586936
-0.00246173
-0.00263569
0.000748469
0.00440746
0.0210745
-0.00318663
0.000441564
-0.00376353
0.0109703
-0.0285539
-0.0281542
0.058338
-0.00206316
0.0163723
0.000203046
0.000448626
0.000262751
0.000143151
5.69835e-05
1.45292e-05
-3.39044e-06
-1.29932e-05
-1.84917e-05
1.85121e-05
-1.03188e-05
0.00061764
-0.000688502
0.000688818
-0.000617692
2.38489e-06
0.000616621
-0.000576725
-1.19832e-06
-0.000700851
1.00389e-06
-0.000614129
1.07375e-06
0.000578059
2.3307e-05
0.000653308
-5.4363e-05
-0.000709028
1.5455e-06
0.000700843
-2.8991e-07
4.70613e-07
0.00127545
-0.00231642
0.00231688
-0.00228627
0.00268633
-0.00314168
0.00386723
-0.00457137
0.00557741
-0.00661676
0.00799578
-0.00939542
0.0112277
-0.0129607
0.0153292
-0.0172609
0.0201901
-0.0218249
0.0252111
-0.0145074
0.000358178
0.014699
0.000424027
-0.024552
0.02127
0.000125671
-0.0195761
0.0169077
7.80726e-05
-0.0148617
0.0127191
4.83393e-05
-0.0108887
0.00921773
2.91161e-05
-0.00775509
0.00648645
1.89802e-05
-0.00540452
0.00448125
1.53185e-05
-0.00373507
0.00309728
1.22245e-05
-0.00258213
3.18261e-06
0.00258657
-0.00309108
-1.06487e-05
-0.00267785
0.00228679
-4.69892e-06
-0.00128479
-8.33333e-05
0.0013051
-0.00239936
0.00258042
-0.00309741
0.00368174
-0.00442029
0.00533435
-0.0063583
0.00767165
-0.0090076
0.0108151
-0.0124036
0.014869
-0.0164362
0.019771
-0.020483
0.0247997
-0.0143337
-0.00346915
0.00605178
0.000684468
-0.0230857
0.0186136
0.000165254
-0.0178803
0.0152309
-5.26548e-05
-0.0131582
0.0113678
-9.09637e-05
-0.00956695
0.00818083
-7.99921e-05
-0.0068184
0.00576347
-7.70813e-05
-0.00475741
0.00402384
-8.00472e-05
-0.00329096
0.00283674
-9.86294e-05
-0.00227745
0.00187795
2.71088e-05
-0.000645301
0.00108246
0.00178905
-1.82171e-05
0.000202652
-0.000329426
0.000971752
-0.00300287
0.00254334
-0.00361893
-0.00243793
-0.00303122
0.000198233
0.00176064
0.00195784
-0.00251954
0.00093316
-0.00224233
-0.000194315
9.30044e-05
-0.000862655
7.08396e-05
-3.57739e-05
-0.000897949
3.87278e-05
-0.000185489
-0.00229408
-0.00248861
0.00200963
-0.00294352
-6.69649e-05
0.00318095
-0.00409198
0.00475098
-0.00586399
-0.000235559
0.00690075
-0.00835752
0.00968478
-0.0116964
3.09904e-05
0.0130756
-0.0158971
0.016883
-0.0205341
0.00425103
0.000738501
0.000216692
0.000258561
-9.47211e-05
6.26838e-05
0.0135549
-0.0163184
0.000710403
-0.0132383
0.0127106
0.0176149
-0.0206132
0.00109387
-0.0181238
0.0144628
0.0290289
-0.00255991
0.00132413
-0.030774
-0.028582
0.0557222
-0.00374764
0.000594088
0.0010672
-0.0137088
0.00273838
0.00828641
-0.00860896
0.00058112
0.00675606
-0.00603379
2.73736e-05
0.00479514
-0.00446654
-5.15267e-05
0.00321875
-0.00309325
-0.000107889
0.00234544
-0.00209216
-0.000149778
0.00174103
-0.00120568
-0.000173058
0.00158747
0.000566461
0.000404497
-8.18549e-05
-4.10646e-05
0.000771864
-0.000326639
0.00395928
-0.00499233
0.00590078
-0.0071536
-0.00462444
-0.00602522
0.000249677
0.0038766
0.00488022
-0.00420086
0.000162765
-0.00323849
-0.000109922
-5.65224e-05
-9.34018e-06
-5.8524e-05
-7.99074e-05
0.00018502
0.000134816
8.95482e-05
-0.000549403
-0.000154557
0.00104603
0.00155764
0.00131685
0.000457542
0.0021396
0.000800956
0.000600362
0.000420187
-0.000274113
-0.000797249
-0.0011072
-0.000533801
0.000425423
-0.000640156
6.46981e-05
0.00109787
-0.000983938
0.00855077
-0.0101878
0.0120492
-0.014348
-0.00939089
-0.012047
0.000493259
0.00768974
0.00999795
-0.00859881
0.000357585
-0.00662079
-0.000153075
-5.39453e-05
-7.41969e-05
-0.000105794
-0.000263287
9.07363e-07
-6.15632e-05
-0.000182486
2.63185e-05
5.48759e-06
0.00087655
3.81165e-05
-8.68315e-05
-1.6641e-05
2.38323e-05
1.29037e-05
-6.02349e-05
0.000134146
-0.00154189
-5.66799e-05
-1.62529e-05
-6.34412e-06
-2.04993e-05
0.00315023
1.14057e-05
-0.00385587
0.0037456
-0.00446632
-7.8837e-06
0.00459339
2.22195e-05
-0.00555994
0.00542859
-0.00645679
1.33699e-06
0.00666027
3.5169e-05
-0.0079662
0.00780412
-0.00916276
1.53661e-05
0.00947589
5.45124e-05
-0.0111818
0.01098
-0.0126233
3.98616e-05
0.0131013
7.34767e-05
-0.0152618
0.0150124
-0.0167533
8.53619e-05
0.0174571
3.67059e-05
-0.0200722
0.0197621
-0.0210798
0.000137468
0.0219052
-0.000171768
-0.0249805
0.0246305
-0.014574
-3.08686e-05
0.014455
-0.000996997
-0.00231684
-0.00191548
-0.0027569
-0.0284105
0.00612129
0.00426503
-0.00222787
-0.00449323
-0.00159905
-0.0241673
0.00544746
-0.00915164
-0.0127421
-0.0027849
-0.0038486
-0.00490124
-0.00265376
-0.00140513
0.000666838
-0.000799481
-0.00162163
-0.00152478
-0.00104076
-0.000794061
-0.000612602
-0.000162119
0.00123888
0.00135083
0.00134586
0.00154899
0.00200492
0.00191203
0.00143019
0.00144021
0.000968282
-0.000854297
0.000271677
-9.83391e-05
-6.85235e-05
0.000246721
-0.000744485
-1.64614e-06
-7.76945e-07
-1.87216e-06
1.11421e-06
-0.000473504
-0.000543183
-0.000539623
-0.000478013
0.000476476
-0.000395623
1.69614e-05
0.000544638
-0.000460695
-0.000461409
1.71319e-05
0.000541544
8.93063e-07
1.99683e-06
2.24521e-06
2.04098e-06
-1.90642e-05
1.72062e-05
-7.99262e-06
-3.48723e-06
7.10621e-06
2.69549e-05
6.52379e-05
6.51538e-05
-3.84011e-05
-0.000381619
0.000257388
-0.000257549
0.00185981
-0.00261253
0.0166736
-0.0196497
0.0226924
-0.000255209
-0.00649197
-0.00119747
0.00180216
2.14128e-05
0.000416459
0.00072478
-0.002503
-0.00446271
-0.00858059
-0.0198161
-0.0203837
-0.0470413
-0.019512
-0.0167046
-0.00033513
-0.00647906
0.0058733
-0.0409003
-0.0248779
-0.0120276
0.0179635
0.0014361
0.000786888
-0.0184329
0.0194193
0.000126822
-0.00239567
-0.0201298
0.0194898
3.91034e-05
-0.00264845
-0.0196515
0.0194338
0.000160598
-0.0042625
-0.0187571
0.013871
-0.0117968
0.010181
0.0077611
0.0220966
-0.0103898
-0.00580474
0.00325749
0.0126272
-0.0387831
-0.00192296
-0.0225487
0.0215561
0.0206188
0.019027
0.0240302
0.0107646
0.00181196
0.008792
0.0128903
0.0204063
-0.00736092
0.00181298
0.0123326
-0.00824101
0.000111474
0.00838389
-0.00644695
-1.20665e-05
0.00609545
-0.00459902
1.5403e-05
0.00441531
-0.00322983
1.68183e-05
0.00312523
-0.00226743
-4.4115e-06
0.00212192
-0.00169505
-0.000104541
0.00130481
-0.00150345
-0.000527116
6.07547e-05
-0.00178832
-0.00110135
0.000653786
-0.00187633
0.00231218
-0.00281672
9.66375e-05
-0.00258209
0.00239776
-2.14355e-05
-0.00130173
8.4323e-05
0.00128743
-0.00127303
6.86271e-06
9.48879e-06
3.62754e-06
4.15351e-06
8.30856e-06
1.31051e-05
3.78812e-05
5.7623e-05
9.30447e-05
-0.000325476
3.61465e-05
-0.000134072
0.00146679
-0.00150526
8.79589e-05
9.71049e-05
0.000521152
0.00053228
0.00553644
0.00710952
-0.000234588
-0.00491336
0.00574949
0.000347585
-0.00700178
0.00800799
0.000463716
-0.00984675
0.0106886
0.000615363
-0.0135359
0.0136097
0.000830967
-0.0177682
0.000248994
0.000560174
-0.0029671
-0.00296037
-0.00807892
-0.00415373
-0.00240603
-0.00150867
-0.00104822
-0.000812459
-0.000627246
-0.00018138
0.00121088
0.00130598
0.00128851
0.00191382
0.00116151
-0.000181453
-0.000606199
-0.000819177
-0.00108224
-0.00153729
-0.00239525
-0.00410153
-0.0077657
-0.0179174
-0.0187958
-0.0324777
-0.0260419
-0.00863106
-0.00860747
0.0163527
0.00176051
-0.00203862
-0.00162817
0.00772319
0.000270415
-0.00626595
-0.00598856
0.00614663
-8.60454e-06
-0.00687622
-0.00657263
0.00541714
1.5453e-06
-0.00853983
-0.00814182
0.00270378
-0.0116871
0.00800007
0.0077666
0.00811375
0.00709737
-0.0100146
0.000766166
0.00359309
-0.0116242
0.00268511
-0.0108929
0.0125512
-0.0275593
-0.00120707
-0.0265294
0.0199358
0.0212021
0.0205293
0.0201332
0.0205041
0.0200304
-0.0287232
-0.00145573
-0.0259069
0.0167719
0.0179904
0.0168449
0.017764
-0.00120659
-0.0276377
-0.0274557
0.0125852
0.0205802
0.0189243
0.0180688
0.0225437
0.0222976
0.0174058
0.00503111
0.010531
0.00442676
-0.00244213
0.00420215
0.000905629
-0.0030828
0.00241271
0.000300269
-0.00247617
0.00179233
0.00019658
-0.00190199
0.00128613
0.000123515
-0.00136486
0.000950748
0.000105109
-0.000989449
0.000634872
2.9988e-05
-0.00071917
0.000417899
-5.49395e-05
-0.000643572
0.000165886
-0.000367742
-0.000929422
-0.000428111
-0.00129444
-0.00156354
-0.00157118
-0.00105694
-0.000765686
-0.00118738
-4.88149e-05
0.000880026
-0.000658035
6.57847e-05
0.000726323
-0.000722919
3.09939e-05
0.000756076
-0.000776358
-2.67476e-05
-5.45554e-05
-0.00138254
-4.87316e-06
-0.00237257
3.76304e-06
-0.00261893
1.7495e-05
0.00313598
-0.0031806
-2.32438e-06
-0.00370766
8.69331e-05
0.0044583
-0.00404689
8.75817e-05
0.00484115
7.77182e-05
-0.0057983
0.000120362
0.00690883
9.28313e-05
-0.00819837
0.000159132
0.00963702
6.33097e-05
-0.0112833
0.000195371
0.01304
6.04276e-05
-0.0150284
0.00025068
0.0170907
-0.000140816
-0.0191361
0.000429711
0.0214334
-0.000223438
-0.000668071
-0.0267657
-0.0193843
0.000770912
0.0221652
-0.000311818
-0.0209735
-0.0145603
0.000644883
0.017901
-0.000189835
-0.015943
-0.0109672
0.000409374
0.0135741
-0.000147762
-0.0117515
-0.00804507
0.000277287
0.0099251
-8.77256e-05
-0.00837304
-0.0057393
0.000179029
0.00703561
-6.41124e-05
-0.00581112
-0.00399204
8.48119e-05
0.00494314
-2.10254e-05
-0.00391595
-0.00273855
3.73173e-05
0.00359186
4.87401e-05
-0.00253027
-0.00180111
0.000177664
0.00298705
0.000341483
-0.000221943
0.000655118
-0.00110349
-0.00179382
6.37732e-05
-0.000535097
6.64237e-05
0.00157469
-0.000128876
2.37552e-05
-0.00131258
8.1076e-06
0.00237818
-0.00232116
-9.28901e-06
-0.0026003
9.98008e-05
-0.00285222
5.23245e-05
0.00336233
0.000118909
3.07704e-05
1.67168e-05
3.11322e-05
0.00272351
2.41536e-05
-1.97945e-05
-0.000578816
-1.51425e-06
0.000631886
1.21115e-06
2.50614e-06
3.19727e-06
-9.84133e-05
-0.000114217
-8.20433e-05
-0.000879339
3.43704e-05
-0.000183322
-6.51582e-05
-6.19227e-05
-6.71985e-05
0.00323578
0.00267167
-6.58146e-05
0.000222098
5.5473e-05
2.91322e-05
0.00177162
0.000191125
-0.00254918
0.00270362
0.000159017
-0.00345544
0.00398588
0.000245758
1.81054e-05
-0.000130381
-0.000143993
-0.000183305
-0.000195732
-0.000228595
-0.000206798
-0.000188975
-0.000133825
-0.000141064
-0.000133876
-7.21733e-05
-8.12046e-05
-0.002505
0.00264029
0.00421973
-0.00499065
0.0061239
-0.00713164
-0.000115037
-0.00469685
1.10737e-05
0.00410652
-0.000111418
-0.00327133
-6.22959e-05
0.00301857
-2.12579e-05
8.57094e-05
-0.00244609
-0.000105899
0.00294614
-0.00320162
7.5102e-06
-0.00633997
-3.24962e-05
0.00749795
-0.00659819
1.22365e-05
-0.0079669
1.09273e-05
0.00943629
-0.00931174
3.21674e-06
-0.0109064
7.82794e-06
0.0127203
-0.0130826
-3.20016e-05
-0.0144692
7.41345e-05
0.0165338
-0.0188587
-4.2375e-05
0.0210458
-0.0232365
-0.000297954
-0.000655394
-0.000116076
-2.63328e-05
2.18316e-05
3.03801e-05
2.80351e-05
2.62048e-05
2.51485e-05
-1.56169e-05
1.08349e-05
-0.000616204
0.000692858
-0.000682705
-0.000627154
6.10452e-06
5.58068e-06
-1.71896e-05
3.63532e-05
0.000593912
4.75324e-06
-6.64764e-06
-5.42065e-05
6.86467e-05
-6.26313e-05
-0.000859632
3.24117e-05
-0.000221704
0.00156727
0.000202371
-6.16013e-05
-4.39588e-05
2.67789e-05
-2.21467e-06
0.00045801
0.000465509
-1.37665e-05
0.000391837
0.000618287
-1.06086e-05
-1.31488e-05
-1.26587e-05
-4.39067e-05
2.52076e-05
-0.000701093
0.00208265
0.000102317
-0.00314258
-2.75745e-05
0.00363069
-0.00319788
-9.34083e-06
-0.0038786
3.42487e-06
-0.00454546
1.88889e-07
-0.0054654
1.87313e-05
0.0065397
-0.00670253
-1.06326e-05
-0.00766073
9.84883e-05
0.00906637
-0.0106936
9.59934e-05
0.0124574
-1.10939e-06
1.20647e-05
1.52421e-05
1.66266e-05
1.5584e-05
2.00375e-05
2.78562e-06
4.7942e-07
-1.58948e-05
-1.62908e-05
-4.25807e-05
-6.52663e-05
-1.42021e-05
-1.53547e-05
4.28319e-06
4.29642e-06
6.50341e-06
8.50237e-06
1.1303e-05
1.58222e-05
1.81189e-05
1.97888e-05
2.87883e-05
3.47417e-05
0.00014946
0.000200403
-0.000510065
0.000277913
-0.00084435
0.0039307
-0.0237858
-0.00642416
0.000156502
-0.00219116
0.0110586
-0.0110446
-0.0338876
-0.0130409
-5.47717e-05
0.00330777
0.000234166
-0.0262122
-0.0114536
-0.00770615
0.0155495
0.00173439
-0.00176242
-0.00297473
0.00837676
0.000268749
-0.00584296
-0.00720491
0.00719863
1.2294e-05
-0.00641596
-0.00756069
0.00670086
5.92452e-05
-0.00823578
-0.00857758
0.00165411
-0.000470822
8.17221e-05
8.82903e-05
0.021019
-0.0190369
0.000277719
0.0174377
-0.000542104
0.000342145
-0.0220396
0.000441249
-0.013637
0.0156129
0.000171427
-0.0168136
-0.0294471
0.0225538
-0.00171409
0.00282911
0.00967617
-0.000141289
0.0226189
0.0165943
0.018638
-0.0226486
0.000719598
-0.0191431
-0.000144683
-0.0211793
0.000904374
-0.0202943
-0.000152932
-0.0204021
0.000950441
-0.0217887
0.0173402
0.0169893
-0.00114431
-0.0333946
-0.02683
0.0124176
-0.00878107
0.0120163
0.00689492
0.00813378
-0.0107694
0.00299424
0.00230879
-0.0119624
0.0045224
0.00822436
-0.0101488
0.0169328
-0.00905465
0.00146263
-0.00904154
0.00143834
-0.00976453
-0.00764059
0.00135027
-0.000632682
-0.000107859
-5.88173e-05
1.12527e-05
4.3744e-05
4.10292e-05
3.22973e-05
2.73448e-05
2.52438e-05
-1.59112e-05
1.14671e-05
-0.000395333
0.000477245
4.14697e-06
9.41467e-05
6.72418e-05
5.44464e-05
-0.0006557
-4.01666e-05
0.000740034
-0.000596939
-0.000319109
0.000744061
-0.000764981
-0.00106077
-0.00119035
0.000870486
0.000879019
-5.03495e-05
-7.21635e-05
-0.000244068
3.01534e-05
0.000904326
-0.000154476
-0.00020436
-0.000140377
0.00068597
0.000687385
-0.000206316
-0.000151972
0.000859377
-0.000436396
-0.000955728
-0.000439136
0.000890331
-3.23206e-05
-3.97135e-05
-9.46082e-05
7.00413e-06
6.90602e-05
0.00157589
-0.000131565
6.56748e-05
-5.60399e-06
-1.0032e-05
-1.56715e-05
-2.25866e-05
-3.57551e-05
-6.54058e-05
-0.000124351
1.56624e-05
-5.85404e-05
9.83718e-05
-0.00076912
-0.000230741
0.000750824
-0.00139343
-0.00052068
-0.000538068
-0.0158837
0.0152628
-0.000449512
-0.00034897
0.00095509
-0.000627166
-0.000355195
0.00274698
0.00512187
0.00270943
0.0157864
-0.00746802
0.0016486
0.010977
0.0126107
-0.00387769
0.00116732
-0.000154951
0.000797983
-0.000189868
6.48625e-05
-0.00128619
-0.000110115
5.67083e-05
2.20751e-05
2.13945e-06
-6.35601e-06
7.88938e-06
-7.66961e-06
1.36405e-05
1.99834e-05
1.53889e-05
9.48952e-05
0.000195769
0.000284069
0.000371767
0.000465557
0.000639436
0.000422487
0.000128085
0.00023712
0.000138417
6.31974e-05
2.78114e-05
2.27606e-05
1.33721e-05
2.96416e-05
3.0699e-05
-0.00367783
0.00332679
-0.00399161
0.00478215
-0.00572352
9.20391e-05
-0.00530968
0.00442132
8.40568e-05
2.10657e-05
1.57087e-05
1.44246e-06
0.00309764
2.22255e-05
-2.11295e-05
0.000710495
-1.09572e-05
1.97458e-05
6.90319e-05
-0.000122822
0.000801132
0.000628581
-0.000266562
0.000107187
-1.77189e-06
-6.98386e-07
0.000399756
-1.33747e-05
-5.35494e-07
0.000278556
-0.000854611
0.000244341
3.65664e-06
9.81799e-05
7.13983e-05
7.73541e-06
-7.13919e-05
3.19626e-05
6.7062e-05
-0.000267081
-0.000245295
0.000804131
-0.000320563
-0.000595469
-0.00012421
0.000746202
-3.91406e-05
6.93182e-05
4.70793e-05
-2.52571e-05
2.41089e-06
2.10705e-05
4.72248e-05
5.96832e-05
7.8446e-06
4.98083e-05
6.02181e-05
8.49895e-05
1.84812e-05
-3.44995e-07
2.186e-05
-1.51166e-06
0.00636712
-0.00761149
0.00683337
-0.00811543
0.00956595
-0.0112311
0.000169435
-0.0106812
0.0090285
0.000119266
1.10906e-05
9.86732e-05
0.000115697
0.000141317
0.000135047
2.97112e-05
-2.07651e-06
2.72005e-05
2.68548e-05
4.16704e-05
3.18638e-05
4.76931e-05
0.000114762
0.000380851
0.000254465
0.00129567
0.000131588
6.0259e-05
2.65491e-05
6.17478e-06
-1.12586e-05
-4.50699e-06
-5.07503e-06
8.46811e-06
4.71924e-06
3.64503e-06
1.52341e-05
1.76407e-05
1.411e-05
-4.07277e-06
-1.29417e-05
-3.58621e-06
-5.5326e-06
-6.0268e-06
3.75501e-06
7.37596e-06
1.25791e-05
1.9917e-05
2.5756e-05
3.90934e-05
3.1799e-05
3.80301e-05
7.27555e-05
6.20332e-05
4.20379e-05
0.00010414
0.000254257
8.99052e-05
0.000101275
0.00353488
-0.000634113
0.000376132
8.10913e-05
0.000285958
0.00756923
-0.000309363
-0.0011011
0.00600023
0.00201948
-0.0261506
-0.00948156
-0.0170774
0.0166043
-0.0117387
-0.0125929
0.0149761
-0.0182333
-0.000990384
-0.001364
-0.0169102
0.0150862
-0.000153709
-0.000765213
-4.51342e-05
0.00029209
0.000399994
0.00635762
0.00217358
-0.011638
-0.0106254
0.0182264
0.00167638
-0.00430729
-0.00131315
0.0072106
0.000193393
-0.0083732
-0.00544306
0.00547716
-1.88689e-05
-0.00871703
-0.00599093
0.00479905
-4.87327e-05
0.00763535
0.00740013
0.000432077
0.01015
-0.00991306
7.33042e-05
-0.00807716
-5.81841e-05
-0.000150979
-2.29945e-05
6.51077e-06
1.69391e-05
1.49857e-05
1.07408e-05
7.00238e-06
3.68512e-06
-3.8935e-06
-1.3345e-05
0.000166817
-0.00342019
0.00397783
0.000248412
-0.00488192
0.00577192
0.00877
-0.0101301
0.0122588
-0.0141344
-0.000157024
-0.00953972
0.000154166
0.00827713
-0.000140803
-0.00673894
6.72316e-05
0.00585269
-0.000422798
-0.000291235
-0.00517462
-0.000174175
0.00590649
-0.00655077
3.98292e-05
-0.0125993
-1.81813e-05
0.0146925
-0.0128316
2.37671e-05
-0.0149714
3.00816e-05
-0.0169923
-2.91819e-05
-0.0191159
-5.96489e-05
0.0213262
-0.0221451
-1.12566e-05
0.023778
-5.81362e-05
-0.0233934
0.0233156
-7.16161e-05
-0.0215759
0.0218129
-0.0236161
-1.35874e-05
2.29814e-05
0.00012022
8.93915e-05
4.17179e-05
1.56378e-05
3.01691e-06
-5.55255e-06
-7.52826e-05
-9.13672e-05
-0.000184474
-0.000229655
-0.000203914
-0.000237323
-0.00695169
0.00806421
0.00047203
-0.00973273
0.0108146
0.0166165
-0.0193208
0.0217198
-0.0254353
0.00045741
-0.0195156
0.00187382
0.0152513
-9.1658e-05
-0.0134921
0.000492727
0.0114578
-0.000726978
-0.000313437
-0.00967242
-5.25327e-05
0.0113736
-0.0122958
0.000125491
-0.0221501
9.71917e-05
0.0251555
-0.0215319
-6.89361e-05
0.0235919
0.000172651
-0.0268319
0.0157211
-1.90465e-05
-0.0162451
0.0141919
-0.017568
0.000586158
-0.00294603
-0.00146959
-0.00247209
-0.00416227
0.0185948
-0.0288895
0.00617367
-0.00632908
-0.00300697
-0.00172889
-0.0011569
-0.00083503
-0.00060503
-0.00035685
0.000264051
0.00396797
0.00190551
-0.000987276
0.000668649
0.000307818
0.00230166
-0.0020152
0.00205899
-0.00012437
-0.00135469
6.0377e-05
0.00257877
-0.00245821
-9.56184e-06
-0.00271346
1.69991e-06
-0.00314151
-1.02025e-06
-0.00378106
2.04797e-05
0.00452783
-0.00463184
-6.61596e-06
-0.00535326
8.64206e-05
0.00641253
2.5895e-05
1.24715e-05
0.00564167
2.08544e-05
0.00391872
-3.82985e-06
-1.15334e-05
-3.12543e-05
-0.000110355
1.29341e-05
0.00135395
8.99946e-05
9.70825e-05
0.00047418
0.000835028
-0.00138095
-6.58963e-05
-0.00226382
1.543e-05
-0.00442905
-3.32355e-05
0.00520069
-0.00457988
3.15235e-06
-0.00558018
6.23017e-06
-0.00657077
2.93867e-06
-0.00781754
1.58476e-05
0.00926106
-0.00950355
-1.76794e-05
0.011215
-5.51076e-06
5.93938e-06
0.00805222
-2.47161e-07
2.21609e-05
8.75915e-06
-9.90746e-06
0.00382771
-3.16069e-05
0.00268278
0.000164803
-2.04028e-05
0.00223469
1.06687e-05
0.000109597
-0.000177653
0.00274265
-0.000106857
-0.000178671
-0.00362106
-0.000146393
-0.00461658
1.86088e-05
-0.0090375
-3.05871e-05
0.0106371
-0.00933967
2.01985e-05
-0.0111031
1.88213e-05
-0.0128019
-4.91492e-06
-0.0147245
-1.47218e-05
0.0168547
-0.0174026
-5.03516e-05
0.0195618
-3.88393e-05
-6.56568e-06
1.28251e-05
1.83707e-05
3.33493e-05
2.83974e-05
2.55444e-05
2.21345e-05
1.62299e-05
1.66927e-05
1.92805e-05
1.24883e-05
0.000134493
0.00021057
0.000291145
1.07866e-05
3.65488e-05
2.68364e-05
2.2174e-05
1.72818e-05
-1.76476e-06
1.23624e-05
-0.000147798
-0.00296386
4.45608e-05
-0.00290042
0.00381446
0.000119024
-0.00433227
-0.00443537
0.00388634
0.00363462
0.000115511
-0.00413653
-0.0047298
0.00412109
-0.00313815
3.96963e-05
-0.0028045
0.00267351
0.00281195
0.00277205
0.00270735
4.58653e-05
-0.00308541
-0.00286768
-0.000147761
0.00369834
0.00012158
-0.00464478
-0.00423895
-0.000227555
0.00522885
0.000245778
-0.00676671
-0.00614296
-0.00630561
-0.00645903
0.000248328
0.00540382
0.00551529
-0.000226239
0.00512993
0.000241525
-0.00599113
-0.00689356
0.0058642
-0.000233828
-0.00389666
-0.00583594
7.43132e-05
0.0033411
-0.000156164
-0.00267642
-0.00393777
2.53881e-05
0.00252074
0.00298341
-0.00190008
0.000167163
-0.00184452
-0.000186861
-0.00187311
0.000165897
-0.00184093
-0.000186592
-0.00187712
0.000172248
-0.00187368
0.00294631
0.00254784
-0.000196226
-4.1774e-05
0.000187018
-0.00123169
-0.00137479
-0.00132187
-0.00146898
-0.00139799
-0.00140951
-0.00142473
-0.00125575
-0.0019244
-0.00145563
-0.00132799
-0.00137169
-0.000924105
-0.000383933
-0.000481674
0.000857812
-0.000963592
0.00236341
0.00239022
0.00237264
0.00237898
0.0024668
0.00229721
-0.000929391
0.000748027
-0.000381697
-0.000924363
-0.000484181
0.000904604
-3.8513e-05
6.11167e-05
6.20864e-05
0.000137336
0.000214216
-1.06154e-05
-0.000316343
0.00773372
0.000383979
-0.00888083
-0.00910187
-0.00841667
-0.00971759
0.000368738
0.00719204
0.00824409
-0.000323352
-0.00560067
-0.00843268
0.000171393
0.0047198
0.00706964
-4.88674e-05
0.000699426
-0.00101395
9.89029e-05
0.00100142
-0.0014309
0.000140845
0.0014275
-0.00193452
0.000251774
0.00218207
-0.00233405
0.000783515
0.0041608
0.000861354
0.00196474
-0.000464401
0.00105248
-0.000562821
0.000762764
-0.000461702
0.000582936
-0.000351888
0.000407314
4.82174e-05
-0.000726565
0.00495774
-1.74022e-05
0.000462926
-0.000640139
-4.27221e-05
8.38818e-05
-0.000307496
-0.000498461
0.000202144
5.17476e-05
-0.00254461
0.000168645
-0.00176699
-0.00019733
-3.82408e-05
0.000209066
-0.000984768
-0.00157148
-0.00155311
-0.00129691
-0.000421211
-0.000932914
-0.000360883
-0.0006855
-0.00212204
0.000343027
0.00298998
0.00228565
0.00248266
-0.000927657
-0.00201028
-0.0012268
0.000193129
0.000684439
0.000637936
0.000872855
0.00110301
0.00137808
0.000268428
-0.00783771
-0.0118793
0.00997809
0.00664594
-0.000493528
-0.000341815
-0.000192182
-0.000163948
0.000857513
0.00101542
0.00120704
-0.000647077
-0.00042132
0.0112559
0.00050634
-0.0114268
-0.0132664
-0.0105777
-0.0163346
0.000364266
0.00916507
0.0137324
-5.16785e-05
0.000132091
6.86181e-05
4.46935e-05
8.08876e-05
0.00014309
-0.0145925
0.0130619
-0.0150469
-8.61437e-06
0.000283257
0.000194388
0.000115275
3.8548e-05
-3.1881e-06
0.0124526
4.19739e-05
6.46719e-06
0.0165869
0.000241547
-1.23953e-06
0.000372012
0.000444183
-7.47446e-05
1.16009e-05
3.88399e-05
1.68165e-05
2.66537e-05
-2.28563e-05
2.78874e-05
2.66969e-05
5.0263e-05
1.13159e-05
4.02913e-05
3.56699e-05
1.54062e-05
1.83977e-06
3.00197e-06
1.87068e-06
1.59594e-05
0.000349532
0.000586108
0.000419783
0.000337486
0.000341335
0.000378931
0.000192912
0.000191904
2.46833e-05
0.000125582
0.00217721
0.000263453
0.000482026
0.000475891
0.00057553
0.00058064
0.000670603
0.000543781
0.000553685
0.000781714
0.000733501
-0.0132449
0.0138582
0.00091591
-0.0169504
0.00052418
0.000328254
-0.00290766
-0.00389301
-0.0221359
-0.0232579
-0.0385097
0.00972478
0.00329262
0.0184103
-0.00664573
0.0104573
-0.00116138
-0.0118103
0.0106926
-0.000249981
0.00752339
-0.000266515
0.0100566
-0.0110614
-0.000905571
-0.000281513
-0.000341705
0.000140544
-0.00120488
0.00788307
-0.000352051
0.000418239
0.000256038
0.000135859
0.000146685
7.55579e-05
6.78023e-05
-0.000117268
-0.00012837
-3.44566e-06
0.000173264
0.000914764
0.000144277
-3.56845e-05
-9.00774e-05
0.00768987
-0.00907345
7.93387e-05
-0.0170339
2.15616e-05
0.0196721
-0.0170071
8.68044e-06
-0.0193931
3.02576e-05
0.0191827
-6.39267e-06
8.898e-06
1.98711e-05
4.01597e-05
8.99704e-05
0.000646728
0.000134581
4.86972e-05
2.39507e-05
1.02472e-05
9.80607e-06
8.8038e-06
6.40377e-06
4.01211e-06
0.00382284
6.72721e-06
0.00459762
3.39735e-06
0.00316138
0.00265074
9.31955e-06
0.0023671
0.00134886
3.54715e-05
6.29988e-06
-1.76074e-06
1.06449e-05
4.80452e-06
0.00552038
0.000105745
-0.000260943
0.00415586
-0.000162985
0.000133267
-0.000337559
0.00551282
-0.000190321
-0.000348185
-0.00718984
-0.000158421
0.00829052
-0.000418738
-0.000204475
0.000243462
0.000180083
1.96964e-05
0.00789644
1.58803e-05
0.00789116
3.30958e-05
4.92092e-05
0.0110284
2.51647e-05
0.0129811
3.87954e-05
0.000117639
0.0149213
-0.00058701
0.0104021
-0.000373642
-0.000400889
-0.0129197
0.000200758
0.0134525
-0.00113218
0.000245845
-0.000328036
-0.00226326
-0.00581111
-6.97532e-07
-0.000897108
-0.000383098
0.000243501
0.000240914
0.0194082
2.41867e-05
-3.24695e-05
-7.14786e-05
-6.70871e-05
-0.000345538
-1.59783e-05
4.79311e-05
3.96598e-05
0.017231
0.0148273
-1.23998e-05
-1.54537e-06
-4.33826e-05
-0.00010434
-0.000135132
-0.000590259
-0.000202648
-0.000191549
-9.1587e-05
-3.20763e-05
0.0151108
-3.93267e-05
2.72652e-06
1.5363e-05
0.000285462
0.000193462
9.44049e-05
-0.000107228
-2.80157e-05
0.000377931
0.0004773
0.000636566
-8.25788e-05
0.00027332
0.000266534
-0.000496627
0.00237153
0.00529129
-0.00364224
0.0242823
0.00167085
0.00074786
-9.53229e-05
0.000824708
0.00121808
0.00117025
0.00100231
0.000847262
0.000674884
0.000693302
0.000200718
-1.52629e-05
-1.65035e-05
-0.00192428
-0.000964202
-0.00201116
-0.000990569
0.000200999
0.000625147
-0.000195979
-0.000156002
0.00339418
0.00405718
0.000135235
1.195e-05
1.56497e-05
2.08484e-05
1.67057e-05
2.10577e-05
9.32215e-06
-9.32779e-05
0.000868843
0.00232931
0.000134469
6.13937e-05
9.10464e-06
-2.89408e-06
1.55363e-05
1.59921e-05
1.67899e-05
1.8206e-05
-1.35437e-05
0.000209454
0.000287307
0.000296467
0.000379543
-6.12505e-05
-0.000539618
-0.0124229
0.000545743
-0.0120909
0.0133546
0.000800592
-0.0159086
-0.0164518
0.0137276
0.0128524
0.000697816
-0.014988
-0.0175794
0.0147074
-0.000548185
0.0122833
0.0182431
5.16514e-05
6.96179e-05
-0.000828182
0.00169684
0.00202963
0.00232683
0.00548314
0.00671845
0.01334
0.031299
0.00356435
0.0163522
0.024239
-0.00194138
-0.00111787
0.00117847
0.00134647
-0.000756116
-0.000586381
0.00981853
0.0105289
0.010291
0.00998432
0.000538449
-0.0129718
-0.0118023
-0.000549934
0.0130671
0.000804669
-0.0170735
-0.0156825
-0.000732721
0.0161785
0.017248
0.0153254
-0.000706621
-0.000156781
-0.00021459
-2.17464e-05
2.28111e-05
0.000101577
2.35696e-05
2.29021e-05
-3.52171e-05
-1.40967e-05
-0.000219201
0.00219411
-0.000246801
-0.000151028
-0.000344206
-0.000299786
-0.000186587
-0.000317275
-0.000143503
0.0059305
-0.000173654
0.000111623
2.53038e-05
7.99959e-06
0.000263339
0.000229177
-0.00259403
0.0133222
-0.00672344
-0.0240851
-0.0285495
0.00240106
-0.0135119
0.00571059
0.00184168
-0.00837119
-0.00925518
-0.000934614
-0.00138105
0.00903356
0.00835818
-0.000834258
-0.00820046
-0.000171053
0.00814295
-2.77833e-05
8.78171e-05
-2.72863e-06
8.30854e-05
0.000280154
0.000291691
0.000187232
4.70064e-05
3.53851e-05
-6.35502e-05
-5.76059e-05
2.16993e-06
-7.48628e-05
-2.98023e-05
-1.2323e-05
0.000367471
0.00045247
0.000454602
-0.000194477
0.000541744
0.000537853
-0.000397241
0.0221311
-0.00130897
0.00134334
-0.0245614
0.000513939
0.000301467
0.00296629
0.000356019
0.000623804
0.00197632
-0.000155981
-3.08881e-05
-0.000150004
0.000570981
0.00525339
-0.000348232
-0.000227053
-0.000134963
0.000109879
-0.0143212
0.0164465
-0.000594627
1.80774e-05
-0.000752987
-0.00173967
-0.00194568
-0.000361
-0.000177033
0.00633805
-0.000195757
-0.000211602
-0.000401442
-7.56584e-05
-0.000246683
0.00562889
-0.000374598
-0.000174942
0.000579709
0.000465808
-9.08022e-06
-6.94151e-05
-4.67577e-05
-0.000136721
0.000111752