/*--------------------------------*- C++ -*----------------------------------*\
| =========                 |                                                 |
| \\      /  F ield         | OpenFOAM: The Open Source CFD Toolbox           |
|  \\    /   O peration     | Version:  2306                                  |
|   \\  /    A nd           | Website:  www.openfoam.com                      |
|    \\/     M anipulation  |                                                 |
\*---------------------------------------------------------------------------*/
FoamFile
{
    version     2.0;
    format      ascii;
    arch        "LSB;label=32;scalar=64";
    class       volVectorField;
    location    "2.4";
    object      flux;
}
// * * * * * * * * * * * * * * * * * * * * * * * * * * * * * * * * * * * * * //

dimensions      [0 1 -1 1 0 0 0];

internalField   nonuniform List<vector> 
2658
(
(1.01128e-06 9.90637e-07 -8.88541e-06)
(1.4744e-06 5.71677e-07 -8.60011e-06)
(4.74218e-07 1.78048e-07 -6.51237e-06)
(-4.43798e-08 -2.40745e-08 -5.92871e-06)
(-2.14056e-06 -2.1051e-06 -7.31691e-06)
(-1.81048e-06 2.58918e-06 -7.49699e-06)
(1.90432e-06 -2.22172e-06 -6.84234e-06)
(1.87905e-06 1.86974e-06 -6.59636e-06)
(-3.62056e-08 -3.59146e-08 -5.92373e-06)
(2.57056e-06 -1.83327e-06 -7.47481e-06)
(-1.72396e-06 5.70026e-07 -7.3804e-06)
(-1.24016e-06 -4.11227e-06 -5.82362e-06)
(8.16953e-07 2.48489e-06 -7.75915e-06)
(9.78511e-07 2.52816e-06 -7.24708e-06)
(7.50521e-07 2.04336e-06 -7.51081e-06)
(-7.05001e-08 2.10024e-06 -7.72442e-06)
(-3.36143e-08 2.30512e-06 -7.40831e-06)
(-7.69889e-09 2.0675e-06 -7.7069e-06)
(-8.24561e-07 2.09181e-06 -7.50428e-06)
(-1.06464e-06 2.49697e-06 -7.15261e-06)
(-1.00648e-06 2.40523e-06 -7.63239e-06)
(-2.34124e-06 2.09233e-06 -6.8743e-06)
(-2.81039e-06 6.89538e-07 -7.86603e-06)
(2.12014e-06 -4.79785e-07 -6.04367e-06)
(-9.0019e-07 7.79945e-07 -9.44825e-06)
(-1.10624e-06 2.3035e-06 -7.61604e-06)
(-2.38247e-06 -5.05229e-07 -6.79845e-06)
(-3.45738e-07 1.36373e-07 -8.0381e-06)
(-1.74496e-06 1.87904e-06 -8.19534e-06)
(-1.87036e-06 -9.46449e-11 -6.72257e-06)
(-1.74494e-06 -1.87907e-06 -8.19527e-06)
(-2.38252e-06 5.0524e-07 -6.79846e-06)
(-1.10631e-06 -2.30362e-06 -7.61598e-06)
(-2.81055e-06 -6.89521e-07 -7.86595e-06)
(-9.00139e-07 -7.79916e-07 -9.44825e-06)
(2.12012e-06 4.79845e-07 -6.04358e-06)
(-1.17011e-06 -1.49455e-07 -7.80745e-06)
(5.38541e-07 1.95881e-07 -1.0859e-05)
(-2.34084e-06 -2.09297e-06 -6.87422e-06)
(-1.00677e-06 -2.40537e-06 -7.63258e-06)
(-1.06462e-06 -2.49716e-06 -7.1527e-06)
(-8.24518e-07 -2.0919e-06 -7.50429e-06)
(-7.85876e-09 -2.06734e-06 -7.70682e-06)
(7.1865e-08 1.03982e-06 -1.12267e-05)
(-1.44219e-06 -1.69208e-07 -7.15848e-06)
(1.34939e-06 -8.63154e-08 -7.07849e-06)
(-1.72392e-06 -5.70057e-07 -7.38043e-06)
(-6.33756e-08 1.08231e-06 -1.12157e-05)
(-7.07358e-08 -2.10062e-06 -7.72453e-06)
(7.50543e-07 -2.04338e-06 -7.51086e-06)
(9.78563e-07 -2.52798e-06 -7.24701e-06)
(8.16932e-07 -2.4849e-06 -7.75922e-06)
(2.21924e-06 -2.19937e-06 -6.94474e-06)
(-4.73869e-07 4.57659e-07 -1.12469e-05)
(2.49784e-06 -8.19588e-07 -7.76611e-06)
(2.05137e-06 -7.77187e-07 -7.52194e-06)
(-1.10031e-06 5.31446e-08 -1.12166e-05)
(1.09083e-07 -1.36943e-06 -7.11137e-06)
(-3.91107e-06 -1.23332e-11 -6.08638e-06)
(2.074e-06 -2.34593e-08 -7.7147e-06)
(-1.10025e-06 -5.31088e-08 -1.12167e-05)
(2.05142e-06 7.77156e-07 -7.52203e-06)
(2.49783e-06 8.19637e-07 -7.76618e-06)
(-4.73794e-07 -4.57721e-07 -1.12469e-05)
(5.42271e-07 5.4982e-07 -7.2875e-06)
(-4.12143e-06 -1.20228e-06 -5.83527e-06)
(5.34699e-07 -1.70999e-06 -7.36102e-06)
(-3.15123e-08 -7.52827e-08 -6.66039e-06)
(-1.35567e-06 -2.8673e-06 -7.41802e-06)
(-1.35583e-06 2.86732e-06 -7.41786e-06)
(-6.28197e-08 2.76133e-11 -6.02277e-06)
(1.37052e-06 2.45335e-06 -6.71507e-06)
(-8.33765e-08 -2.53375e-08 -5.22665e-06)
(-1.49886e-06 2.04252e-06 -6.02922e-06)
(2.70459e-08 -7.77766e-09 -4.65037e-06)
(-1.57803e-06 -1.54664e-06 -5.9619e-06)
(2.02426e-06 -1.53399e-06 -6.01288e-06)
(-1.51708e-08 3.62381e-08 -4.64427e-06)
(-1.76008e-06 1.50139e-06 -5.32195e-06)
(1.96856e-06 9.87052e-07 -5.22163e-06)
(-2.32394e-06 -1.02626e-06 -6.01253e-06)
(-4.25401e-08 -6.59684e-08 -5.22477e-06)
(2.46247e-06 1.30859e-06 -6.6817e-06)
(-2.23143e-06 1.96493e-06 -6.86404e-06)
(-5.92782e-08 -4.40802e-08 -5.58306e-06)
(-3.63249e-08 -2.58902e-08 -4.35881e-06)
(-6.53309e-09 -4.97385e-12 -3.31095e-06)
(6.57996e-09 1.09358e-08 -2.43586e-06)
(1.07406e-08 1.43354e-08 -1.74143e-06)
(1.12852e-08 1.5134e-08 -1.22309e-06)
(9.52579e-09 1.29144e-08 -8.69697e-07)
(-2.54326e-08 -4.61892e-08 -8.78347e-07)
(2.2972e-08 2.43422e-08 -7.6177e-07)
(-1.54873e-07 1.20893e-07 -6.30058e-07)
(1.05005e-07 -5.33863e-08 -6.83372e-07)
(-1.86607e-08 -1.24414e-07 -7.28378e-07)
(-1.30263e-07 -2.2667e-08 -6.70601e-07)
(6.96694e-10 -1.33846e-07 -1.0152e-06)
(1.31127e-07 -2.44498e-08 -6.71118e-07)
(-1.06749e-07 -5.10277e-08 -6.80808e-07)
(5.78777e-08 -1.46751e-07 -1.02095e-06)
(1.48437e-07 -3.94877e-08 -6.89305e-07)
(1.29008e-07 -1.26592e-07 -7.38674e-07)
(1.06297e-07 -6.86851e-08 -8.29053e-07)
(1.10636e-07 -5.70505e-08 -7.00946e-07)
(-2.23533e-07 1.31697e-07 -7.56304e-07)
(-4.34028e-08 -4.74036e-08 -5.39587e-07)
(-3.1042e-08 -5.38922e-10 -9.05252e-07)
(-1.06531e-08 1.72438e-08 -5.89424e-07)
(6.14626e-08 -1.38058e-07 -8.96523e-07)
(1.31982e-07 4.57778e-08 -8.31727e-07)
(5.2754e-08 -6.25951e-08 -6.7939e-07)
(1.0488e-07 -2.60413e-12 -9.34241e-07)
(5.2747e-08 6.25948e-08 -6.79365e-07)
(1.31983e-07 -4.57864e-08 -8.31729e-07)
(6.14572e-08 1.38054e-07 -8.9652e-07)
(1.10641e-07 5.70545e-08 -7.00962e-07)
(-2.2353e-07 -1.31699e-07 -7.56306e-07)
(1.29016e-07 1.26591e-07 -7.38679e-07)
(1.06308e-07 6.86861e-08 -8.29063e-07)
(1.48438e-07 3.94788e-08 -6.89301e-07)
(5.78695e-08 1.46749e-07 -1.02091e-06)
(-1.06754e-07 5.10262e-08 -6.80804e-07)
(1.3113e-07 2.44504e-08 -6.71118e-07)
(-2.069e-07 -1.03742e-07 -6.55762e-07)
(2.07646e-07 -1.00495e-07 -6.58948e-07)
(-1.54866e-07 -1.20898e-07 -6.30036e-07)
(-1.86561e-08 1.24423e-07 -7.28401e-07)
(-1.30265e-07 2.26729e-08 -6.70601e-07)
(1.05001e-07 5.33947e-08 -6.8339e-07)
(-5.89202e-08 1.43886e-07 -1.01687e-06)
(-1.44633e-07 3.70521e-08 -6.80826e-07)
(-9.92624e-08 6.88025e-08 -8.1596e-07)
(-9.03179e-08 6.23389e-08 -6.75729e-07)
(-5.73241e-08 1.28542e-07 -8.85757e-07)
(6.52726e-09 -5.78889e-08 -6.23996e-07)
(-2.65108e-08 3.80554e-09 -6.03562e-07)
(-1.53992e-07 6.01853e-09 -7.09178e-07)
(1.26812e-07 -1.31876e-07 -6.14637e-07)
(1.26745e-07 1.31905e-07 -6.14658e-07)
(-2.65013e-08 -3.81905e-09 -6.03542e-07)
(6.49623e-09 5.78925e-08 -6.23997e-07)
(6.08373e-08 -3.47101e-08 -6.91875e-07)
(-6.32661e-08 -3.61619e-08 -7.3483e-07)
(-7.27695e-08 -3.29954e-10 -9.24246e-07)
(-6.31173e-08 3.60427e-08 -7.34484e-07)
(3.5171e-08 6.31203e-11 -8.55345e-07)
(4.55989e-08 7.0902e-11 -8.21381e-07)
(-1.26997e-07 -7.16992e-08 -5.87031e-07)
(-1.32151e-07 7.06699e-08 -5.8997e-07)
(-1.10393e-07 1.54463e-10 -5.59605e-07)
(-1.39907e-07 5.62903e-09 -7.91206e-07)
(-1.36926e-07 3.76197e-08 -7.70057e-07)
(-1.41855e-07 -4.21789e-08 -4.966e-07)
(-1.09281e-07 1.69219e-07 -6.67164e-07)
(-1.9434e-07 3.93649e-08 -6.29033e-07)
(-1.76983e-07 1.58589e-07 -5.70134e-07)
(-7.47111e-08 1.87645e-07 -6.27615e-07)
(-8.4953e-08 1.98602e-07 -5.92055e-07)
(-6.18254e-08 1.57772e-07 -6.14287e-07)
(2.89745e-10 1.58817e-07 -6.33428e-07)
(1.43804e-10 1.8171e-07 -6.06851e-07)
(-5.34131e-10 1.58693e-07 -6.33864e-07)
(5.95599e-08 1.60604e-07 -6.14618e-07)
(8.46135e-08 2.03123e-07 -5.89624e-07)
(7.62852e-08 1.89503e-07 -6.25215e-07)
(1.80703e-07 1.65807e-07 -5.69991e-07)
(2.24429e-07 5.36519e-08 -6.53123e-07)
(-5.16442e-08 -1.2153e-08 -9.69765e-07)
(1.38975e-07 3.17886e-08 -8.13925e-07)
(-3.54602e-07 -2.2802e-07 -1.04542e-06)
(4.00811e-07 2.98657e-07 -1.26878e-06)
(-4.73109e-07 -3.26694e-07 -1.51467e-06)
(5.69575e-07 4.12475e-07 -1.80489e-06)
(-6.69983e-07 -4.79099e-07 -2.1652e-06)
(8.08638e-07 5.7621e-07 -2.57068e-06)
(-9.43789e-07 -6.88925e-07 -3.04868e-06)
(1.12433e-06 7.90202e-07 -3.58079e-06)
(-1.29794e-06 -9.61571e-07 -4.17745e-06)
(1.52259e-06 1.0509e-06 -4.84028e-06)
(-1.73111e-06 -1.30313e-06 -5.5448e-06)
(2.01421e-06 1.35106e-06 -6.3227e-06)
(-2.23532e-06 -1.72642e-06 -7.1247e-06)
(2.66633e-06 1.68173e-06 -7.76248e-06)
(-2.668e-06 1.64317e-06 -7.5178e-06)
(2.83532e-06 1.37691e-06 -7.38048e-06)
(-2.92814e-06 1.30734e-06 -7.45012e-06)
(2.57049e-06 1.83336e-06 -7.47472e-06)
(-2.14067e-06 2.10504e-06 -7.31684e-06)
(-4.4389e-08 2.40532e-08 -5.92862e-06)
(-1.81037e-06 -2.58924e-06 -7.49708e-06)
(5.34606e-07 1.71e-06 -7.36092e-06)
(-4.12135e-06 1.20218e-06 -5.83528e-06)
(5.42283e-07 -5.49835e-07 -7.28751e-06)
(-1.24018e-06 4.11222e-06 -5.82364e-06)
(4.88112e-07 -5.00365e-07 -9.51162e-06)
(-5.92861e-08 4.40469e-08 -5.58306e-06)
(-3.63278e-08 2.58697e-08 -4.35879e-06)
(-6.55614e-09 -4.28687e-12 -3.31094e-06)
(6.55765e-09 -1.09601e-08 -2.43585e-06)
(1.07519e-08 -1.43573e-08 -1.74142e-06)
(1.12955e-08 -1.51306e-08 -1.22308e-06)
(9.52859e-09 -1.29129e-08 -8.69686e-07)
(-2.54347e-08 4.6189e-08 -8.78354e-07)
(2.29778e-08 -2.43316e-08 -7.61773e-07)
(6.35083e-10 1.80431e-09 -5.15196e-07)
(-5.58604e-08 -5.47574e-08 -5.5588e-07)
(-3.61324e-09 1.95249e-08 -8.765e-07)
(7.83987e-08 -7.05667e-08 -5.70976e-07)
(7.83964e-08 7.05657e-08 -5.70976e-07)
(-5.58653e-08 5.47624e-08 -5.55885e-07)
(6.38701e-10 -1.80941e-09 -5.15193e-07)
(-3.59808e-09 -1.95297e-08 -8.76504e-07)
(2.59239e-08 -2.1355e-08 -5.32292e-07)
(2.07651e-07 1.00506e-07 -6.58937e-07)
(-2.06911e-07 1.0374e-07 -6.55762e-07)
(1.42031e-08 -1.2582e-07 -7.27163e-07)
(1.59513e-07 1.18051e-07 -6.34843e-07)
(-1.52626e-08 2.8375e-08 -7.63646e-07)
(5.595e-09 -3.70223e-09 -5.19085e-07)
(-2.37872e-08 -1.91532e-08 -5.30801e-07)
(3.05272e-10 1.84166e-08 -7.77965e-07)
(2.25913e-09 -1.68014e-08 -8.73499e-07)
(2.17212e-08 -1.77499e-08 -8.74981e-07)
(1.40996e-08 -8.67472e-13 -8.85507e-07)
(2.17207e-08 1.77474e-08 -8.74975e-07)
(-1.52848e-08 -2.83993e-08 -7.63643e-07)
(-4.33966e-08 4.7402e-08 -5.39578e-07)
(-1.02711e-07 -8.97815e-08 -5.80218e-07)
(-3.10373e-08 5.44734e-10 -9.05255e-07)
(2.27384e-08 -9.95438e-08 -6.18381e-07)
(2.27388e-08 9.95515e-08 -6.18381e-07)
(-1.02714e-07 8.97842e-08 -5.80214e-07)
(-4.46043e-09 -3.477e-13 -7.98067e-07)
(6.41656e-08 -6.24147e-08 -5.63365e-07)
(-7.61768e-08 -6.84007e-08 -5.67585e-07)
(-7.61845e-08 6.84055e-08 -5.67576e-07)
(1.28113e-09 -1.86241e-08 -8.75885e-07)
(6.41734e-08 6.24158e-08 -5.6336e-07)
(-1.40359e-09 -9.26803e-09 -7.4654e-07)
(-1.4068e-08 -1.55044e-12 -7.08778e-07)
(-1.84683e-08 -4.99669e-08 -6.95415e-07)
(-1.70108e-08 -2.2321e-08 -6.45818e-07)
(7.61248e-08 6.49963e-08 -7.3083e-07)
(-1.73195e-08 -1.69882e-08 -6.99676e-07)
(-5.7474e-09 5.3791e-12 -7.27948e-07)
(-1.26652e-07 3.79275e-12 -9.96968e-07)
(1.68177e-08 -1.81143e-12 -8.01898e-07)
(-5.14624e-08 -9.61485e-08 -5.89416e-07)
(7.98802e-08 6.84682e-08 -8.44831e-07)
(8.47391e-08 1.90013e-07 -6.29678e-07)
(1.87543e-07 -4.626e-08 -5.47242e-07)
(1.33026e-07 1.51087e-07 -6.66517e-07)
(-3.49291e-07 -2.02947e-07 -7.04672e-07)
(2.29526e-07 2.40152e-07 -1.0171e-06)
(-3.74694e-07 -2.60095e-07 -1.09575e-06)
(-3.74674e-07 2.60082e-07 -1.09575e-06)
(-9.45826e-09 3.37473e-08 -7.77986e-07)
(-3.81504e-07 3.03194e-07 -1.33516e-06)
(8.06383e-09 2.16392e-08 -9.16746e-07)
(4.25187e-07 -3.76393e-07 -1.58295e-06)
(-5.22271e-07 4.36613e-07 -1.90151e-06)
(6.00836e-09 1.18359e-08 -1.30567e-06)
(6.11349e-07 -5.30945e-07 -2.25741e-06)
(-7.37382e-07 6.27408e-07 -2.6969e-06)
(1.13044e-09 2.17088e-09 -1.84756e-06)
(8.63489e-07 -7.42194e-07 -3.18006e-06)
(-1.0239e-06 8.7987e-07 -3.74414e-06)
(-7.53394e-09 -1.29644e-08 -2.55194e-06)
(1.18683e-06 -1.01079e-06 -4.36223e-06)
(-1.37734e-06 1.19688e-06 -5.04505e-06)
(-2.29471e-08 -4.6016e-08 -3.41908e-06)
(1.59071e-06 -1.33206e-06 -5.79848e-06)
(-1.77997e-06 1.57997e-06 -6.58034e-06)
(-4.34104e-08 -1.27541e-07 -4.43185e-06)
(2.13195e-06 -1.69492e-06 -7.41377e-06)
(-2.15797e-06 2.0214e-06 -8.41718e-06)
(-1.17616e-07 -3.49587e-07 -5.74481e-06)
(3.25829e-06 -2.20724e-06 -8.77443e-06)
(5.28442e-07 -1.02112e-06 -6.02191e-06)
(3.77822e-06 -2.27487e-06 -7.67342e-06)
(3.77821e-06 2.2749e-06 -7.67339e-06)
(-3.45677e-07 -1.36298e-07 -8.03798e-06)
(8.27447e-07 -6.21691e-07 -8.03852e-06)
(-3.03931e-07 1.18192e-06 -7.25885e-06)
(1.19815e-06 1.05454e-06 -6.73844e-06)
(5.98901e-08 -9.95112e-12 -9.65462e-06)
(-7.63583e-07 -7.48595e-07 -6.4525e-06)
(-7.63585e-07 7.48604e-07 -6.45255e-06)
(8.28609e-07 7.81393e-07 -6.50316e-06)
(-4.17729e-08 -5.66767e-12 -9.67047e-06)
(-9.78729e-07 -9.41723e-07 -6.58779e-06)
(-9.78716e-07 9.41725e-07 -6.58781e-06)
(2.61658e-07 3.80451e-07 -6.24633e-06)
(-3.11588e-07 -3.51565e-12 -9.52223e-06)
(-1.3757e-06 -2.45226e-06 -7.93108e-06)
(-1.37571e-06 2.45224e-06 -7.93106e-06)
(4.55134e-07 -1.52692e-06 -9.03909e-06)
(1.93962e-06 1.61306e-11 -1.27636e-05)
(4.55145e-07 1.52689e-06 -9.03911e-06)
(7.33357e-07 -1.19122e-06 -9.18281e-06)
(2.11827e-06 7.56259e-07 -1.26154e-05)
(8.89666e-07 1.74284e-06 -9.14694e-06)
(1.21505e-06 1.21169e-06 -1.06278e-05)
(1.59365e-06 1.59007e-06 -9.30621e-06)
(-2.37611e-06 -2.35608e-06 -9.09659e-06)
(-1.38292e-06 1.67579e-06 -7.54084e-06)
(1.37304e-06 2.22427e-07 -8.81215e-06)
(8.87629e-07 1.41798e-07 -1.01572e-05)
(-1.58593e-09 2.32061e-08 -9.51465e-06)
(2.61667e-07 -3.8046e-07 -6.24633e-06)
(-1.57134e-07 -1.38346e-07 -5.9589e-06)
(-4.01448e-07 -3.91757e-07 -9.38519e-06)
(1.66574e-06 -1.34961e-06 -7.57195e-06)
(-1.21098e-06 7.2984e-07 -9.18593e-06)
(7.49843e-07 2.09025e-06 -1.26157e-05)
(1.74261e-06 8.87652e-07 -9.15275e-06)
(9.95975e-07 9.98177e-07 -1.01617e-05)
(-5.25902e-07 -5.12041e-07 -9.24185e-06)
(-7.08485e-07 1.29416e-11 -9.34084e-06)
(-5.25877e-07 5.12071e-07 -9.2418e-06)
(-4.01469e-07 3.91759e-07 -9.38519e-06)
(-1.38288e-06 -1.6758e-06 -7.54082e-06)
(-2.37608e-06 2.35603e-06 -9.09662e-06)
(8.8968e-07 -1.743e-06 -9.14669e-06)
(2.11833e-06 -7.56364e-07 -1.26155e-05)
(7.33408e-07 1.19119e-06 -9.18273e-06)
(1.37304e-06 -2.22465e-07 -8.81227e-06)
(8.87643e-07 -1.41805e-07 -1.01572e-05)
(9.96101e-07 -9.98073e-07 -1.01617e-05)
(1.74246e-06 -8.8772e-07 -9.15312e-06)
(7.49721e-07 -2.09021e-06 -1.26155e-05)
(-1.211e-06 -7.29876e-07 -9.18604e-06)
(1.66568e-06 1.34959e-06 -7.57193e-06)
(2.0716e-07 -1.38218e-06 -8.80368e-06)
(1.50315e-06 -4.99664e-07 -9.09912e-06)
(-3.83121e-08 -1.9355e-06 -1.27731e-05)
(-1.56977e-06 -4.39983e-07 -9.05167e-06)
(2.43935e-06 1.27229e-06 -7.95592e-06)
(-3.90864e-08 3.03575e-07 -9.53623e-06)
(-4.35578e-07 -2.96252e-07 -6.24419e-06)
(-2.51246e-06 1.38311e-06 -7.93957e-06)
(-4.65846e-08 -2.75384e-07 -9.13331e-06)
(-2.94201e-07 -3.32741e-07 -9.23002e-06)
(1.71256e-08 1.02988e-08 -5.92565e-06)
(1.42299e-08 -1.23476e-08 -4.64172e-06)
(6.91917e-09 -2.91129e-08 -3.53266e-06)
(3.99822e-09 -3.22004e-08 -2.60211e-06)
(2.28376e-09 -2.96453e-08 -1.86198e-06)
(4.64615e-10 -2.57257e-08 -1.30828e-06)
(-8.17989e-10 -2.09596e-08 -9.30237e-07)
(-7.68479e-09 -2.44895e-08 -9.20046e-07)
(3.5713e-07 -2.15385e-07 -1.01726e-06)
(-3.86088e-07 -1.83505e-07 -1.00402e-06)
(3.89627e-07 -1.65426e-07 -1.0075e-06)
(-3.50434e-07 -2.51646e-07 -1.01331e-06)
(3.89029e-07 3.37364e-07 -1.20747e-06)
(-4.85734e-07 -3.70062e-07 -1.4457e-06)
(5.64414e-07 4.71483e-07 -1.7153e-06)
(-6.90156e-07 -5.43534e-07 -2.06786e-06)
(8.08341e-07 6.5935e-07 -2.44493e-06)
(-9.6869e-07 -7.83989e-07 -2.9146e-06)
(1.13141e-06 9.03279e-07 -3.40798e-06)
(-1.32633e-06 -1.10101e-06 -4.00006e-06)
(1.53886e-06 1.19877e-06 -4.60798e-06)
(-1.75995e-06 -1.50141e-06 -5.32198e-06)
(2.02414e-06 1.53409e-06 -6.01277e-06)
(-2.23136e-06 -1.96497e-06 -6.8641e-06)
(-3.61834e-08 3.58487e-08 -5.92364e-06)
(1.87906e-06 -1.86968e-06 -6.59638e-06)
(1.90408e-06 2.22188e-06 -6.84226e-06)
(1.37077e-06 -2.4534e-06 -6.71522e-06)
(-1.0868e-06 2.27979e-06 -6.00299e-06)
(2.57502e-08 -8.95595e-12 -4.74798e-06)
(-1.08658e-06 -2.27977e-06 -6.00305e-06)
(1.04845e-06 1.95184e-06 -5.24079e-06)
(1.44747e-06 -1.75386e-06 -5.31094e-06)
(1.43514e-06 1.42236e-06 -5.15307e-06)
(-1.19838e-06 -1.17429e-06 -4.52352e-06)
(-1.16533e-06 1.55223e-06 -4.6177e-06)
(3.85209e-08 9.48104e-09 -3.52205e-06)
(1.06039e-06 1.04794e-06 -3.89025e-06)
(5.78133e-09 4.55999e-08 -3.51672e-06)
(1.53902e-06 -1.19865e-06 -4.60808e-06)
(-2.26593e-08 -5.06198e-08 -4.04943e-06)
(-1.76273e-06 -7.93296e-07 -4.59278e-06)
(1.71903e-06 -9.07663e-07 -4.57634e-06)
(-3.68772e-09 4.52322e-08 -3.59211e-06)
(-1.48387e-06 8.27861e-07 -3.96167e-06)
(1.37237e-06 9.04629e-07 -3.95911e-06)
(-1.61352e-06 -1.0148e-06 -4.60068e-06)
(-3.82761e-09 -5.62865e-08 -4.05327e-06)
(-1.96718e-06 1.12522e-06 -5.25978e-06)
(-7.21776e-09 2.85782e-08 -4.73311e-06)
(2.256e-06 -1.15231e-06 -5.96887e-06)
(-2.47763e-06 1.45455e-06 -6.75447e-06)
(-1.29436e-08 -5.97463e-08 -6.00844e-06)
(-2.92815e-06 -1.30732e-06 -7.4501e-06)
(-9.12952e-08 -9.38003e-09 -6.66675e-06)
(1.34938e-06 8.6323e-08 -7.07853e-06)
(-6.33804e-08 -1.08233e-06 -1.12157e-05)
(2.07203e-07 1.38214e-06 -8.80371e-06)
(-2.51249e-06 -1.38316e-06 -7.9395e-06)
(-4.35558e-07 2.96228e-07 -6.24417e-06)
(7.91421e-08 1.01695e-07 -9.25304e-06)
(-3.19355e-08 -1.17726e-08 -7.0496e-06)
(-2.84074e-08 -1.10792e-11 -6.23925e-06)
(-2.41669e-08 2.34932e-08 -5.84935e-06)
(-1.50218e-08 -2.91582e-10 -4.59306e-06)
(-7.63676e-09 -1.85185e-08 -3.49513e-06)
(-3.48946e-09 -2.38446e-08 -2.57377e-06)
(-1.4047e-09 -2.32826e-08 -1.84094e-06)
(-4.28202e-10 -2.09065e-08 -1.29316e-06)
(1.88245e-10 -1.70516e-08 -9.19088e-07)
(2.26181e-09 1.68004e-08 -8.73497e-07)
(3.06016e-10 -1.8417e-08 -7.77961e-07)
(-2.37777e-08 1.91522e-08 -5.30803e-07)
(1.27321e-09 1.86114e-08 -8.75879e-07)
(5.59254e-09 3.70796e-09 -5.19076e-07)
(1.59511e-07 -1.18057e-07 -6.34845e-07)
(1.41927e-08 1.25824e-07 -7.27165e-07)
(-6.44673e-09 -8.55066e-08 -1.02396e-06)
(-1.87125e-07 6.14786e-08 -7.71369e-07)
(1.64994e-07 3.51154e-08 -7.6685e-07)
(-1.6499e-07 2.88282e-08 -7.62633e-07)
(1.80856e-07 7.65282e-08 -7.78392e-07)
(-7.39992e-08 5.41839e-08 -7.31831e-07)
(3.48697e-07 -1.52929e-08 -5.73271e-07)
(-9.44908e-08 -2.04229e-07 -8.17068e-07)
(2.38691e-07 3.42986e-07 -1.01187e-06)
(1.79517e-08 1.83582e-10 -9.14958e-07)
(-3.19153e-07 -3.93536e-07 -1.2279e-06)
(-3.21206e-07 3.18451e-07 -1.1586e-06)
(2.91635e-07 -2.65137e-07 -9.8709e-07)
(1.00087e-08 -2.385e-08 -9.05308e-07)
(-4.83738e-09 9.77623e-09 -9.74897e-07)
(-3.77092e-08 1.01457e-07 -8.14839e-07)
(9.95772e-10 1.03069e-07 -8.18026e-07)
(4.27752e-08 1.0229e-07 -8.14725e-07)
(8.51227e-08 6.41201e-08 -7.99969e-07)
(1.08901e-07 7.1933e-08 -7.64953e-07)
(-2.35713e-09 2.76229e-09 -9.80647e-07)
(1.49522e-08 2.73432e-08 -9.94646e-07)
(4.34977e-08 3.25319e-08 -8.41208e-07)
(3.95243e-09 1.02965e-08 -9.78089e-07)
(-9.59508e-09 -2.51747e-08 -1.37802e-06)
(-6.5852e-09 6.37746e-10 -1.40445e-06)
(-1.57666e-08 -9.91826e-09 -1.37688e-06)
(-2.65141e-08 -2.00764e-08 -1.95768e-06)
(-2.25933e-08 -1.91151e-08 -2.01004e-06)
(1.18259e-08 1.20775e-08 -1.68367e-06)
(1.48926e-08 1.60446e-08 -1.17403e-06)
(5.88728e-09 1.83926e-08 -1.14267e-06)
(-4.05804e-07 2.91622e-07 -1.19525e-06)
(4.37575e-07 2.56497e-07 -1.20066e-06)
(-5.4035e-07 -2.73009e-07 -1.43325e-06)
(5.44809e-07 -2.38495e-07 -1.43364e-06)
(-2.48298e-09 1.62774e-08 -1.07792e-06)
(-4.43792e-07 2.31811e-07 -1.19443e-06)
(-8.88194e-11 -2.68407e-08 -9.27118e-07)
(1.42442e-10 1.52137e-08 -9.79792e-07)
(3.24883e-10 -2.25572e-08 -1.37891e-06)
(6.85879e-10 -5.56736e-08 -1.97965e-06)
(-1.651e-08 -5.64669e-08 -1.97686e-06)
(-2.42967e-08 -9.40694e-08 -2.77916e-06)
(-4.31227e-08 -4.18125e-08 -2.823e-06)
(-4.06551e-08 -3.26073e-08 -2.73725e-06)
(-5.9324e-08 -4.897e-08 -3.72215e-06)
(-7.39571e-08 -7.70169e-08 -3.85218e-06)
(7.40306e-10 -6.1105e-10 -3.308e-06)
(8.33622e-09 7.44322e-09 -2.39013e-06)
(8.78401e-09 1.6602e-08 -2.32714e-06)
(-8.48447e-07 5.53483e-07 -2.43324e-06)
(9.07653e-07 5.03435e-07 -2.42989e-06)
(-1.08266e-06 -5.88746e-07 -2.88962e-06)
(1.08994e-06 -5.09509e-07 -2.88051e-06)
(-8.48095e-09 3.2202e-08 -2.18563e-06)
(-9.25536e-07 4.39421e-07 -2.42814e-06)
(7.75855e-07 -3.51493e-07 -2.04713e-06)
(-5.38609e-09 2.41784e-08 -1.54217e-06)
(-6.46159e-07 3.18117e-07 -1.70087e-06)
(-5.18953e-10 -2.92873e-08 -1.31332e-06)
(6.35044e-07 3.60827e-07 -1.70532e-06)
(-7.70001e-07 -4.05958e-07 -2.05083e-06)
(1.97219e-09 2.55009e-08 -1.54597e-06)
(-5.91732e-07 3.98622e-07 -1.70391e-06)
(5.02375e-07 -3.11107e-07 -1.44365e-06)
(1.99606e-09 1.74774e-08 -1.08037e-06)
(3.6254e-10 3.10741e-09 -1.2003e-06)
(-1.12584e-08 -1.02304e-08 -1.14915e-06)
(-3.81458e-07 -3.03149e-07 -1.33516e-06)
(1.23615e-08 3.68921e-09 -7.64003e-07)
(2.94948e-07 2.73341e-07 -1.15044e-06)
(1.25797e-08 -3.81992e-08 -6.84685e-07)
(-3.44262e-07 -2.30199e-07 -9.36515e-07)
(-1.84397e-07 -4.81925e-08 -5.57775e-07)
(6.18531e-08 -1.97868e-08 -6.8527e-07)
(-1.71208e-08 -3.7338e-09 -8.1399e-07)
(-8.1349e-10 7.00206e-09 -8.40493e-07)
(-3.03045e-09 1.8448e-08 -7.99874e-07)
(4.65303e-09 3.65608e-08 -8.27674e-07)
(-5.70738e-09 3.5363e-08 -8.27171e-07)
(7.01086e-09 -8.76362e-08 -1.0201e-06)
(-4.07608e-08 3.39667e-08 -8.624e-07)
(-6.83351e-08 6.36578e-08 -7.96801e-07)
(-4.55806e-08 3.96963e-08 -7.90187e-07)
(9.13221e-09 5.1222e-09 -9.89913e-07)
(-2.31859e-08 1.94834e-08 -9.74884e-07)
(-1.86548e-08 1.81249e-08 -1.19149e-06)
(-7.44464e-09 1.75058e-08 -1.14097e-06)
(1.03008e-08 -2.546e-08 -1.37139e-06)
(1.95509e-08 -5.74374e-08 -1.96796e-06)
(3.01537e-08 -9.66551e-08 -2.76993e-06)
(9.44392e-10 -9.59302e-08 -2.78606e-06)
(9.23615e-10 -1.55509e-07 -3.80371e-06)
(-3.49197e-08 -1.4804e-07 -3.79069e-06)
(-5.4564e-08 -2.41247e-07 -5.0082e-06)
(-1.28642e-07 -1.48643e-07 -5.09957e-06)
(-8.46877e-08 -7.25914e-08 -4.90518e-06)
(-1.57391e-07 -1.43675e-07 -6.24225e-06)
(-2.8784e-07 -3.46631e-07 -6.58723e-06)
(-6.08135e-08 -5.3657e-08 -5.76725e-06)
(-1.62957e-08 -1.73709e-08 -4.44085e-06)
(6.67388e-09 3.9628e-09 -4.34414e-06)
(-1.61349e-06 1.01482e-06 -4.60058e-06)
(1.71894e-06 9.07775e-07 -4.57625e-06)
(-1.96723e-06 -1.12518e-06 -5.25979e-06)
(1.9686e-06 -9.86894e-07 -5.22158e-06)
(-2.27281e-08 5.06296e-08 -4.04947e-06)
(-1.76264e-06 7.93335e-07 -4.59274e-06)
(1.49087e-06 -7.18956e-07 -3.94312e-06)
(-1.33042e-08 4.0634e-08 -3.02179e-06)
(-1.29505e-06 5.9806e-07 -3.38931e-06)
(-1.87964e-09 -4.19916e-08 -2.63681e-06)
(1.26705e-06 6.87058e-07 -3.38576e-06)
(-1.48389e-06 -8.27809e-07 -3.96166e-06)
(-4.90431e-10 4.41399e-08 -3.02645e-06)
(-1.18748e-06 7.58723e-07 -3.396e-06)
(1.00476e-06 -6.46595e-07 -2.89423e-06)
(1.23359e-09 3.42977e-08 -2.19024e-06)
(5.48129e-10 5.94042e-09 -2.42122e-06)
(8.48801e-10 4.51907e-09 -1.713e-06)
(-1.27669e-08 -1.40151e-08 -1.63582e-06)
(-5.22254e-07 -4.36563e-07 -1.90149e-06)
(6.78424e-09 2.12063e-09 -1.08664e-06)
(4.25198e-07 3.76396e-07 -1.58292e-06)
(8.08577e-09 -2.16434e-08 -9.16747e-07)
(3.00854e-08 -6.57233e-09 -9.32135e-07)
(-4.9327e-07 -3.7548e-07 -1.54174e-06)
(5.53142e-07 4.685e-07 -1.84418e-06)
(-6.92523e-07 -5.40619e-07 -2.19388e-06)
(-6.92513e-07 5.40636e-07 -2.19384e-06)
(-1.65941e-09 1.15809e-08 -1.54696e-06)
(7.97577e-07 -6.61859e-07 -2.60909e-06)
(8.42205e-09 6.95049e-09 -1.87853e-06)
(-9.69306e-07 7.65429e-07 -3.08322e-06)
(-1.35755e-09 4.44659e-09 -2.16202e-06)
(1.11483e-06 -9.15355e-07 -3.62066e-06)
(-1.8416e-09 8.50288e-09 -2.59237e-06)
(-1.31886e-06 1.0529e-06 -4.22096e-06)
(-1.51144e-10 -1.07767e-08 -2.93956e-06)
(1.5114e-06 -1.22587e-06 -4.87764e-06)
(-2.87459e-08 7.25378e-09 -3.46652e-06)
(-1.71519e-06 1.40156e-06 -5.60323e-06)
(9.82732e-09 -5.45892e-08 -3.87314e-06)
(2.00019e-06 -1.57858e-06 -6.34701e-06)
(-1.17657e-07 -7.43173e-09 -4.47762e-06)
(-2.07688e-06 1.80351e-06 -7.22138e-06)
(6.31204e-08 -2.05583e-07 -4.93428e-06)
(2.65996e-06 -1.9004e-06 -7.83883e-06)
(-4.50623e-07 -1.56698e-07 -5.63058e-06)
(-2.08056e-06 2.14196e-06 -9.1764e-06)
(-2.79234e-07 -4.00018e-11 -7.36713e-06)
(-2.08051e-06 -2.14197e-06 -9.17641e-06)
(5.28434e-07 1.02095e-06 -6.02192e-06)
(3.25833e-06 2.20737e-06 -8.77429e-06)
(-1.17585e-07 3.49442e-07 -5.74477e-06)
(-2.15785e-06 -2.02132e-06 -8.4172e-06)
(-9.0177e-08 -2.24297e-08 -4.92323e-06)
(2.13186e-06 1.69488e-06 -7.41367e-06)
(-4.33931e-08 1.27453e-07 -4.43181e-06)
(-1.77995e-06 -1.57989e-06 -6.58031e-06)
(-4.64399e-08 -7.07835e-09 -3.89153e-06)
(1.59078e-06 1.33223e-06 -5.79843e-06)
(-2.29056e-08 4.59231e-08 -3.41909e-06)
(-1.37714e-06 -1.19675e-06 -5.04508e-06)
(-2.10064e-08 -3.33108e-09 -2.95597e-06)
(1.18689e-06 1.01092e-06 -4.3622e-06)
(-7.48977e-09 1.28434e-08 -2.5519e-06)
(-1.02386e-06 -8.79831e-07 -3.74416e-06)
(-7.82513e-09 -9.29629e-10 -2.17254e-06)
(8.63491e-07 7.42248e-07 -3.17997e-06)
(1.17812e-09 -2.22623e-09 -1.84754e-06)
(-7.37357e-07 -6.27365e-07 -2.69693e-06)
(3.21266e-10 7.85801e-10 -1.5511e-06)
(6.11358e-07 5.30982e-07 -2.25735e-06)
(6.05214e-09 -1.18253e-08 -1.30566e-06)
(1.67375e-08 -5.83393e-09 -1.32796e-06)
(-2.31735e-08 -2.21058e-08 -1.68147e-06)
(-2.31721e-08 -1.57771e-08 -1.19444e-06)
(-2.11147e-08 -5.81178e-09 -8.80812e-07)
(1.05511e-07 5.11797e-08 -7.48965e-07)
(8.75128e-09 -2.40995e-11 -7.2053e-07)
(-4.36093e-08 -1.17569e-12 -7.84287e-07)
(-5.64577e-08 -4.33739e-11 -1.00803e-06)
(-6.31743e-08 3.51369e-12 -1.38619e-06)
(-7.50269e-08 3.57076e-11 -1.95095e-06)
(-9.13595e-08 6.07435e-11 -2.7153e-06)
(-1.00927e-07 1.17814e-10 -3.68149e-06)
(-7.23395e-08 3.90026e-10 -4.83657e-06)
(4.24891e-08 1.30387e-10 -6.13251e-06)
(1.83836e-07 -3.54112e-11 -7.28346e-06)
(-1.6163e-07 -1.17327e-10 -8.19269e-06)
(-1.33557e-06 6.32746e-07 -8.11117e-06)
(-1.33558e-06 -6.32838e-07 -8.11117e-06)
(-1.37907e-06 -8.82549e-07 -7.5907e-06)
(-1.13789e-06 -8.45243e-07 -8.782e-06)
(-4.12901e-07 -2.51308e-07 -7.17228e-06)
(-1.49783e-07 -4.54297e-07 -6.45151e-06)
(-6.16615e-07 -1.4189e-06 -8.54757e-06)
(1.01363e-06 4.22899e-06 -5.94767e-06)
(1.65716e-06 -3.91791e-07 -7.21033e-06)
(2.98379e-08 2.53008e-08 -6.67194e-06)
(6.90502e-09 -1.65387e-08 -6.85008e-06)
(9.91154e-08 -2.59946e-08 -6.64945e-06)
(-4.50564e-07 1.56708e-07 -5.63056e-06)
(2.65981e-06 1.90052e-06 -7.83872e-06)
(6.3184e-08 2.0547e-07 -4.93421e-06)
(-2.07687e-06 -1.80343e-06 -7.22139e-06)
(-1.8914e-07 -1.35944e-11 -5.79387e-06)
(-5.75526e-08 -1.38863e-11 -5.95735e-06)
(-5.75974e-08 -1.61227e-11 -4.65859e-06)
(9.93044e-09 5.45689e-08 -3.87307e-06)
(-1.71518e-06 -1.40155e-06 -5.60327e-06)
(2.00014e-06 1.57861e-06 -6.34686e-06)
(-1.17656e-07 7.42887e-09 -4.47769e-06)
(-1.86968e-10 -1.92915e-08 -5.48689e-06)
(-1.68664e-08 -2.24176e-08 -4.25123e-06)
(-2.87949e-08 -7.28202e-09 -3.46651e-06)
(1.5112e-06 1.2259e-06 -4.87753e-06)
(-9.06127e-11 1.07492e-08 -2.93954e-06)
(-1.31877e-06 -1.05291e-06 -4.22105e-06)
(-3.39396e-08 1.69868e-11 -3.43151e-06)
(-5.11406e-08 -2.02814e-12 -3.54287e-06)
(-4.24799e-08 -7.28556e-12 -2.61049e-06)
(-3.2586e-08 -1.07829e-11 -1.87048e-06)
(-1.61873e-09 -1.16353e-08 -1.54695e-06)
(7.97569e-07 6.61878e-07 -2.609e-06)
(-9.69308e-07 -7.65422e-07 -3.0833e-06)
(1.11479e-06 9.15417e-07 -3.62056e-06)
(-1.83885e-09 -8.47431e-09 -2.59231e-06)
(-1.833e-08 -2.12775e-08 -3.18275e-06)
(-1.5753e-08 -1.79563e-08 -2.30987e-06)
(1.87716e-09 -1.04625e-11 -1.96889e-06)
(1.04816e-09 -6.4232e-12 -1.38476e-06)
(-6.28001e-10 2.21354e-12 -9.89427e-07)
(-1.34249e-08 -1.37774e-12 -9.45139e-07)
(-9.45493e-09 -3.37603e-08 -7.77992e-07)
(3.72816e-07 3.32724e-07 -1.31513e-06)
(2.35606e-08 -3.51565e-12 -9.21303e-07)
(3.72845e-07 -3.32732e-07 -1.31514e-06)
(3.00611e-08 6.58302e-09 -9.32131e-07)
(-4.93243e-07 3.75496e-07 -1.54173e-06)
(-3.30871e-09 1.85493e-08 -1.08961e-06)
(5.53198e-07 -4.6851e-07 -1.84425e-06)
(1.67608e-08 5.82811e-09 -1.32796e-06)
(-1.27686e-08 1.4004e-08 -1.63583e-06)
(-2.2425e-08 4.23401e-12 -1.31853e-06)
(-3.29946e-09 -1.85886e-08 -1.08959e-06)
(8.92528e-09 1.05041e-11 -1.27698e-06)
(-1.1253e-08 1.02259e-08 -1.14915e-06)
(-1.71161e-08 3.73286e-09 -8.13992e-07)
(-3.44276e-07 2.30206e-07 -9.36511e-07)
(1.25813e-08 3.8175e-08 -6.84692e-07)
(2.94944e-07 -2.73337e-07 -1.15046e-06)
(6.18429e-08 1.97907e-08 -6.85285e-07)
(2.29514e-07 -2.40148e-07 -1.01711e-06)
(-5.14619e-08 9.61576e-08 -5.89408e-07)
(-3.49303e-07 2.02948e-07 -7.04667e-07)
(2.86596e-08 8.21139e-12 -7.43555e-07)
(1.33027e-07 -1.5108e-07 -6.66528e-07)
(1.87542e-07 4.62697e-08 -5.47242e-07)
(8.47307e-08 -1.90029e-07 -6.29675e-07)
(2.24439e-07 -5.36539e-08 -6.53121e-07)
(7.98824e-08 -6.84632e-08 -8.44844e-07)
(2.81723e-08 -7.86374e-09 -6.74487e-07)
(-7.10278e-08 -4.34178e-08 -6.42312e-07)
(3.95479e-08 -2.2362e-08 -7.55842e-07)
(-1.73229e-08 1.69865e-08 -6.99671e-07)
(-1.84614e-08 4.99625e-08 -6.95402e-07)
(7.61223e-08 -6.50042e-08 -7.30836e-07)
(-1.70208e-08 2.23284e-08 -6.45755e-07)
(1.15775e-08 -6.74008e-08 -7.48247e-07)
(5.66772e-10 5.00231e-08 -7.02935e-07)
(6.83877e-10 -2.81865e-12 -7.21752e-07)
(5.61744e-10 -5.00231e-08 -7.02927e-07)
(1.7702e-10 -2.48382e-08 -6.46438e-07)
(6.94256e-10 1.33843e-07 -1.01517e-06)
(1.15807e-08 6.74024e-08 -7.48262e-07)
(-1.39717e-09 9.27453e-09 -7.46548e-07)
(3.95487e-08 2.23678e-08 -7.55844e-07)
(-1.06606e-08 -1.72404e-08 -5.89425e-07)
(-7.1031e-08 4.34193e-08 -6.42306e-07)
(2.81757e-08 7.8618e-09 -6.74486e-07)
(5.31433e-10 9.52165e-09 -7.46967e-07)
(2.27533e-08 -4.79484e-08 -6.91368e-07)
(1.93996e-08 -2.05614e-08 -6.42926e-07)
(-1.22207e-08 6.72307e-08 -7.49586e-07)
(-7.46007e-08 6.26648e-08 -7.29105e-07)
(2.27359e-08 -1.44994e-08 -6.96704e-07)
(-3.93387e-08 1.62109e-08 -7.38948e-07)
(7.38469e-08 9.02915e-08 -5.56768e-07)
(2.2518e-07 -1.29945e-07 -7.49924e-07)
(-1.29794e-07 1.21601e-07 -7.46684e-07)
(4.47475e-08 -1.75665e-08 -9.87131e-07)
(2.0557e-08 1.35488e-13 -7.04607e-07)
(1.15356e-08 6.76668e-12 -7.91419e-07)
(9.91809e-09 4.6557e-12 -8.68819e-07)
(1.46795e-09 -1.31866e-12 -8.76429e-07)
(-2.08084e-10 4.88677e-14 -8.06291e-07)
(3.69234e-11 -3.09744e-12 -9.87487e-07)
(-6.83927e-10 -6.34766e-13 -1.38257e-06)
(-1.67065e-09 5.58861e-12 -1.96685e-06)
(-3.8885e-09 -4.43037e-12 -2.74797e-06)
(2.13025e-09 -3.96535e-12 -2.75011e-06)
(2.75585e-09 1.80409e-11 -3.73226e-06)
(6.76258e-09 1.4718e-11 -4.90202e-06)
(1.92756e-08 -7.48794e-12 -6.25153e-06)
(-1.51047e-07 -1.33472e-11 -8.93548e-06)
(-3.90728e-07 1.29534e-12 -8.21513e-06)
(1.60954e-06 -5.18974e-11 -1.21694e-05)
(-3.03924e-07 -1.18198e-06 -7.25881e-06)