/*--------------------------------*- C++ -*----------------------------------*\
| =========                 |                                                 |
| \\      /  F ield         | OpenFOAM: The Open Source CFD Toolbox           |
|  \\    /   O peration     | Version:  2306                                  |
|   \\  /    A nd           | Website:  www.openfoam.com                      |
|    \\/     M anipulation  |                                                 |
\*---------------------------------------------------------------------------*/
FoamFile
{
    version     2.0;
    format      ascii;
    arch        "LSB;label=32;scalar=64";
    class       volScalarField;
    location    "2.4";
    object      gradTz;
}
// * * * * * * * * * * * * * * * * * * * * * * * * * * * * * * * * * * * * * //

dimensions      [0 -1 0 1 0 0 0];

internalField   nonuniform List<scalar> 
2658
(
-0.0759437
-0.0735052
-0.0556613
-0.0506727
-0.0625377
-0.0640768
-0.0584816
-0.0563792
-0.0506302
-0.0638872
-0.0630803
-0.0497745
-0.0663175
-0.0619409
-0.0641949
-0.0660207
-0.0633189
-0.0658709
-0.0641391
-0.0611334
-0.0652341
-0.0587547
-0.067231
-0.0516553
-0.0807543
-0.0650944
-0.0581064
-0.0687017
-0.0700457
-0.0574579
-0.0700451
-0.0581065
-0.0650938
-0.0672303
-0.0807543
-0.0516545
-0.0667303
-0.0928122
-0.058754
-0.0652357
-0.0611342
-0.0641392
-0.0658703
-0.095955
-0.0611836
-0.0604999
-0.0630806
-0.0958605
-0.0660216
-0.0641954
-0.0619402
-0.0663181
-0.0593568
-0.096127
-0.066377
-0.0642901
-0.0958685
-0.0607809
-0.0520203
-0.0659376
-0.0958694
-0.0642908
-0.0663776
-0.0961272
-0.0622863
-0.0498741
-0.0629147
-0.0569264
-0.0634019
-0.0634005
-0.0514767
-0.0573937
-0.0446722
-0.0515318
-0.0397468
-0.0509564
-0.0513922
-0.0396946
-0.0454867
-0.0446293
-0.0513892
-0.0446561
-0.0571085
-0.058667
-0.0477185
-0.0372548
-0.0282987
-0.0208193
-0.014884
-0.0104538
-0.0074333
-0.00750724
-0.00651086
-0.00538511
-0.00584078
-0.00622546
-0.00573163
-0.00867688
-0.00573605
-0.00581887
-0.00872611
-0.0058915
-0.00631346
-0.00708592
-0.00599099
-0.00646414
-0.00461185
-0.0077372
-0.00503781
-0.00766259
-0.00710878
-0.00580676
-0.00798497
-0.00580654
-0.0071088
-0.00766257
-0.00599113
-0.00646416
-0.0063135
-0.00708601
-0.00589146
-0.00872574
-0.00581884
-0.00573605
-0.00560481
-0.00563204
-0.00538492
-0.00622565
-0.00573163
-0.00584094
-0.00869123
-0.00581902
-0.00697402
-0.00577546
-0.00757057
-0.0053333
-0.00515865
-0.00606135
-0.00525331
-0.00525348
-0.00515848
-0.00533331
-0.00591346
-0.0062806
-0.00789954
-0.00627764
-0.00731064
-0.00702035
-0.00501736
-0.00504248
-0.00478295
-0.00676245
-0.00658168
-0.00424444
-0.00570226
-0.00537635
-0.00487294
-0.00536423
-0.0050603
-0.00525031
-0.00541392
-0.00518676
-0.00541764
-0.00525315
-0.00503952
-0.00534372
-0.00487172
-0.00558225
-0.00828859
-0.00695663
-0.00893518
-0.0108443
-0.0129459
-0.0154264
-0.018506
-0.0219716
-0.0260571
-0.030605
-0.0357047
-0.0413699
-0.0473915
-0.0540402
-0.0608949
-0.0663459
-0.0642547
-0.063081
-0.0636763
-0.0638865
-0.0625371
-0.050672
-0.0640776
-0.0629138
-0.0498742
-0.0622864
-0.0497747
-0.0812959
-0.0477184
-0.0372546
-0.0282986
-0.0208192
-0.0148839
-0.0104536
-0.00743321
-0.0075073
-0.00651088
-0.00440339
-0.00475111
-0.00749146
-0.00488014
-0.00488014
-0.00475115
-0.00440336
-0.00749148
-0.0045495
-0.00563194
-0.00560481
-0.00621506
-0.00542601
-0.00652689
-0.00443663
-0.00453676
-0.00664927
-0.0074658
-0.00747847
-0.00756844
-0.00747842
-0.00652686
-0.00461177
-0.00495913
-0.00773722
-0.00528531
-0.0052853
-0.0049591
-0.00682108
-0.00481508
-0.00485115
-0.00485107
-0.0074862
-0.00481504
-0.00638068
-0.00605793
-0.00594372
-0.00551981
-0.00624641
-0.00598014
-0.00622178
-0.0085211
-0.00685383
-0.00503774
-0.00722078
-0.00538186
-0.00467729
-0.00569673
-0.00602284
-0.00869319
-0.00936538
-0.00936535
-0.00664945
-0.0114116
-0.00783544
-0.0135295
-0.0162522
-0.0111596
-0.0192941
-0.0230505
-0.0157911
-0.02718
-0.0320012
-0.0218114
-0.037284
-0.0431201
-0.0292229
-0.0495597
-0.0562422
-0.037879
-0.0633656
-0.0719417
-0.0491009
-0.0749952
-0.0514693
-0.0655848
-0.0655845
-0.0687007
-0.0687053
-0.0620414
-0.0575935
-0.0825181
-0.0551496
-0.05515
-0.0555825
-0.0826536
-0.0563059
-0.0563061
-0.0533874
-0.0813866
-0.067787
-0.0677868
-0.0772572
-0.10909
-0.0772574
-0.0784856
-0.107824
-0.078179
-0.0908355
-0.0795403
-0.0777486
-0.0644516
-0.0753175
-0.0868137
-0.0813218
-0.0533874
-0.0509308
-0.0802153
-0.0647175
-0.0785122
-0.107826
-0.0782286
-0.0868523
-0.0789902
-0.0798363
-0.0789898
-0.0802153
-0.0644515
-0.0777489
-0.0781769
-0.107825
-0.0784849
-0.0753185
-0.0868138
-0.0868522
-0.0782318
-0.107825
-0.0785132
-0.0647173
-0.0752452
-0.0777702
-0.109172
-0.0773647
-0.0679993
-0.0815062
-0.0533692
-0.0678595
-0.0780625
-0.078889
-0.0506466
-0.0396728
-0.0301937
-0.0222403
-0.0159144
-0.0111819
-0.00795074
-0.00786364
-0.00869457
-0.00858134
-0.00861113
-0.00866073
-0.0103202
-0.0123564
-0.0146607
-0.017674
-0.0208968
-0.0249111
-0.0291281
-0.0341885
-0.0393844
-0.045487
-0.0513912
-0.0586676
-0.0506294
-0.0563793
-0.0584809
-0.057395
-0.0513076
-0.040581
-0.0513081
-0.0447931
-0.0453927
-0.0440433
-0.0386626
-0.0394675
-0.030103
-0.03325
-0.0300574
-0.0393853
-0.0346106
-0.0392545
-0.039114
-0.0307018
-0.0338604
-0.0338385
-0.039322
-0.0346433
-0.0449554
-0.0404539
-0.051016
-0.0577305
-0.0513542
-0.0636761
-0.0569808
-0.0605003
-0.0958606
-0.0752454
-0.067859
-0.053369
-0.0790858
-0.060253
-0.053327
-0.0499944
-0.0392569
-0.0298729
-0.021998
-0.0157345
-0.0110526
-0.00785545
-0.00746579
-0.00664924
-0.00453678
-0.00748614
-0.00443654
-0.00542603
-0.00621508
-0.00875178
-0.0065929
-0.00655428
-0.00651823
-0.00665292
-0.00625497
-0.00489975
-0.00698349
-0.0086485
-0.00782015
-0.0104949
-0.00990256
-0.00843666
-0.00773768
-0.00833245
-0.00696443
-0.00699168
-0.00696346
-0.00683735
-0.00653806
-0.0083816
-0.00850125
-0.00718981
-0.00835973
-0.011778
-0.0120038
-0.0117682
-0.0167323
-0.0171799
-0.0143903
-0.0100344
-0.00976642
-0.0102158
-0.010262
-0.01225
-0.0122533
-0.00921298
-0.0102088
-0.00792408
-0.00837429
-0.0117856
-0.0169201
-0.0168962
-0.0237535
-0.0241282
-0.0233953
-0.0318133
-0.0329246
-0.0282735
-0.0204284
-0.0198901
-0.0207969
-0.0207683
-0.0246976
-0.0246197
-0.0186806
-0.0207533
-0.0174968
-0.0131809
-0.0145374
-0.0112249
-0.0145754
-0.0175285
-0.0132134
-0.0145633
-0.0123389
-0.00923394
-0.0102589
-0.00982178
-0.0114116
-0.00652994
-0.00983282
-0.00585201
-0.0080044
-0.00476731
-0.00585701
-0.00695718
-0.0071837
-0.00683653
-0.00707414
-0.00706984
-0.00871878
-0.00737094
-0.00681027
-0.00675374
-0.0084608
-0.00833234
-0.0101837
-0.0097519
-0.0117213
-0.0168202
-0.0236747
-0.0238124
-0.0325103
-0.0323991
-0.0428052
-0.0435861
-0.0419246
-0.0533525
-0.0563011
-0.0492927
-0.037956
-0.0371294
-0.0393212
-0.0391133
-0.0449554
-0.0446289
-0.0346109
-0.0392542
-0.0337019
-0.0258272
-0.0289685
-0.0225368
-0.0289381
-0.0338604
-0.0258671
-0.0290256
-0.024737
-0.01872
-0.0206942
-0.014641
-0.0139814
-0.0162521
-0.00928754
-0.0135292
-0.00783544
-0.00796697
-0.0131773
-0.0157623
-0.0187511
-0.0187508
-0.0132219
-0.0222999
-0.0160559
-0.0263523
-0.0184788
-0.0309458
-0.022157
-0.0360766
-0.0251245
-0.0416893
-0.0296284
-0.0478909
-0.0331038
-0.054248
-0.0382703
-0.0617212
-0.0421733
-0.0669985
-0.0481246
-0.0784308
-0.0629669
-0.0784309
-0.0514694
-0.0749939
-0.0491006
-0.0719418
-0.0420789
-0.0633647
-0.0378787
-0.056242
-0.0332609
-0.0495592
-0.029223
-0.0431204
-0.0252647
-0.0372838
-0.0218111
-0.0320014
-0.0185687
-0.0271792
-0.0157909
-0.0230507
-0.0132573
-0.0192936
-0.0111595
-0.01135
-0.0143716
-0.0102089
-0.00752831
-0.00640141
-0.00615837
-0.00670331
-0.00861562
-0.0118478
-0.0166748
-0.0232077
-0.0314657
-0.0413382
-0.0524146
-0.0622518
-0.070023
-0.0693262
-0.0693262
-0.0648778
-0.0750598
-0.0613015
-0.0551411
-0.0730562
-0.0508348
-0.0616268
-0.0570251
-0.0585476
-0.0568329
-0.0481245
-0.0669976
-0.0421728
-0.0617212
-0.0495203
-0.0509175
-0.039817
-0.0331031
-0.0478912
-0.0542467
-0.0382709
-0.0468965
-0.0363353
-0.0296283
-0.0416883
-0.0251243
-0.0360773
-0.0293291
-0.0302809
-0.0223119
-0.015987
-0.0132218
-0.0222991
-0.026353
-0.030945
-0.0221565
-0.027203
-0.0197425
-0.0168281
-0.0118355
-0.00845664
-0.00807811
-0.0066495
-0.0112405
-0.00787438
-0.0112405
-0.00796693
-0.0131772
-0.00931293
-0.0157628
-0.0113501
-0.0139814
-0.0112695
-0.00931272
-0.0109143
-0.00982176
-0.0069572
-0.00800437
-0.00585207
-0.00983302
-0.00585714
-0.00869321
-0.00503767
-0.0060228
-0.00635517
-0.00569682
-0.00467728
-0.00538184
-0.00558223
-0.00722089
-0.00576485
-0.00548985
-0.00646019
-0.00598009
-0.0059436
-0.00624646
-0.00551927
-0.00639528
-0.00600799
-0.00616882
-0.00600792
-0.00552511
-0.0086767
-0.00639541
-0.00638075
-0.00646021
-0.00503782
-0.0054898
-0.00576484
-0.00638434
-0.00590913
-0.00549509
-0.00640672
-0.00623167
-0.00595474
-0.00631579
-0.0047587
-0.00640961
-0.00638191
-0.00843702
-0.00602228
-0.00676426
-0.00742581
-0.00749085
-0.00689137
-0.00844006
-0.0118168
-0.0168106
-0.0234869
-0.0235052
-0.0318996
-0.0418976
-0.0534319
-0.0763716
-0.0702148
-0.104012
-0.0620411
-0.0687066
-0.0935339
-0.0780924
-0.0780905
-0.0935343
-0.0993778
-0.061185
-0.0798523
-0.0793159
-0.0807803
-0.0518528
-0.0658909
-0.0745398
-0.0790979
-0.108241
-0.0792522
-0.0918887
-0.0772788
-0.0856673
-0.0781076
-0.0805269
-0.0806796
-0.086521
-0.103436
-0.0806822
-0.0993779
-0.0798537
-0.0611842
-0.0544009
-0.0807799
-0.0658903
-0.0518525
-0.0526838
-0.0815064
-0.0680006
-0.0773636
-0.109171
-0.0777712
-0.0866596
-0.0801753
-0.0805269
-0.0814252
-0.082386
-0.0544005
-0.082
-0.0802821
-0.0860783
-0.0801769
-0.0778771
-0.0866595
-0.0770081
-0.0813219
-0.0509308
-0.0790858
-0.060253
-0.0569806
-0.0603994
-0.0553266
-0.042982
-0.0484344
-0.0514886
-0.051015
-0.0577315
-0.0571078
-0.0446563
-0.0513889
-0.0404531
-0.0485511
-0.0428712
-0.0323535
-0.0371732
-0.0275838
-0.0198715
-0.0139662
-0.0139871
-0.017598
-0.0159364
-0.0146095
-0.0141641
-0.0110184
-0.0147615
-0.01764
-0.0157355
-0.0209597
-0.0202747
-0.0172863
-0.0156938
-0.0242973
-0.0220781
-0.0291847
-0.0283959
-0.0220382
-0.0332498
-0.0301027
-0.0394678
-0.0386624
-0.0300574
-0.0440431
-0.0397466
-0.0515323
-0.050956
-0.0396948
-0.0507575
-0.0553976
-0.0734646
-0.0731591
-0.0633203
-0.0602458
-0.0522741
-0.063892
-0.0559098
-0.0556614
-0.0431567
-0.0325954
-0.0238736
-0.0170004
-0.0119015
-0.0117552
-0.0140274
-0.0131843
-0.0146098
-0.0113204
-0.0146104
-0.0175311
-0.0161349
-0.0207986
-0.020798
-0.0175316
-0.0156682
-0.0110199
-0.00787554
-0.00735662
-0.00681076
-0.00686318
-0.00672807
-0.00587859
-0.00672863
-0.00883359
-0.00807031
-0.0103156
-0.0103148
-0.00883432
-0.00736802
-0.00946317
-0.00610062
-0.00610016
-0.00531993
-0.00575374
-0.00946338
-0.00698368
-0.00489939
-0.00625496
-0.00843649
-0.00782042
-0.0099032
-0.0104943
-0.00864904
-0.00686323
-0.00735662
-0.00718371
-0.0079508
-0.00652994
-0.00893515
-0.0078636
-0.0102159
-0.00923389
-0.0122499
-0.0112252
-0.0145377
-0.0131812
-0.0174968
-0.017674
-0.0156944
-0.0202755
-0.0209596
-0.0157362
-0.0172863
-0.0141648
-0.0147612
-0.0110188
-0.0121367
-0.0109671
-0.0146611
-0.0123564
-0.0122533
-0.0102089
-0.0092132
-0.0103205
-0.00773796
-0.00866075
-0.00861109
-0.00792405
-0.0102621
-0.00858139
-0.0086946
-0.0065929
-0.00683648
-0.0065542
-0.00473523
-0.00651836
-0.00681067
-0.00665274
-0.00443638
-0.00525033
-0.00541392
-0.00871888
-0.00706997
-0.00707417
-0.00718999
-0.00653813
-0.0064015
-0.00752838
-0.0102089
-0.00838143
-0.0117687
-0.0143717
-0.0202163
-0.016733
-0.0233963
-0.0278172
-0.0278171
-0.020216
-0.0160556
-0.0371281
-0.0371283
-0.031814
-0.0419248
-0.0478852
-0.0478838
-0.0586376
-0.0586383
-0.0533522
-0.0648783
-0.0750676
-0.0613013
-0.066348
-0.051019
-0.0642543
-0.0570251
-0.0611835
-0.0522739
-0.0780626
-0.0788891
-0.0506468
-0.0396729
-0.0301938
-0.0222405
-0.0159145
-0.0111819
-0.0092876
-0.0129459
-0.011146
-0.0145634
-0.0132138
-0.0175284
-0.0160596
-0.0207537
-0.0186806
-0.02462
-0.0249111
-0.0220387
-0.0283963
-0.0291842
-0.0220784
-0.0242971
-0.0248793
-0.0186842
-0.0246648
-0.0226115
-0.0289942
-0.0289941
-0.0246651
-0.0186845
-0.0248786
-0.0199054
-0.0171142
-0.0120195
-0.00863439
-0.00682598
-0.00736862
-0.00675244
-0.00569856
-0.00424818
-0.00693586
-0.00756981
-0.00577637
-0.0069745
-0.00638166
-0.00581924
-0.00869118
-0.00506002
-0.0053641
-0.00843655
-0.00487285
-0.00537627
-0.00680948
-0.00696423
-0.0069914
-0.00696332
-0.00503946
-0.0052532
-0.00875174
-0.00541764
-0.00518703
-0.00455513
-0.00695665
-0.00476735
-0.0082886
-0.0053438
-0.0048715
-0.00683678
-0.00835973
-0.00850125
-0.0100347
-0.0108444
-0.00976665
-0.0123391
-0.0117782
-0.0120047
-0.0143904
-0.0154269
-0.0185061
-0.0159363
-0.0207972
-0.01872
-0.0247372
-0.0246977
-0.0225374
-0.0289688
-0.0258267
-0.0337025
-0.0341885
-0.0291288
-0.0275838
-0.0275858
-0.0290261
-0.0258674
-0.0289387
-0.0219981
-0.0157347
-0.0110527
-0.0078555
-0.010259
-0.014641
-0.0206942
-0.0197425
-0.0272031
-0.0285271
-0.0285271
-0.0381003
-0.0346425
-0.0447887
-0.040106
-0.0490751
-0.0446701
-0.0573377
-0.0510185
-0.0504872
-0.0391916
-0.0293227
-0.0212566
-0.01503
-0.0105244
-0.00922804
-0.0123121
-0.0123109
-0.0123103
-0.0123129
-0.0092279
-0.0105245
-0.0150301
-0.0131844
-0.0176406
-0.0140279
-0.00987202
-0.00846073
-0.0119016
-0.0170009
-0.0199056
-0.0207841
-0.0146098
-0.0139667
-0.0139874
-0.0175981
-0.0168963
-0.0171805
-0.020429
-0.0219722
-0.0260572
-0.0223514
-0.0306056
-0.0357044
-0.0304372
-0.0413713
-0.0473917
-0.040107
-0.0514895
-0.0446702
-0.0573382
-0.060895
-0.0420792
-0.0540409
-0.0332611
-0.0492936
-0.0379564
-0.0282738
-0.0241297
-0.0237541
-0.0324002
-0.0329275
-0.042807
-0.0435897
-0.055143
-0.0562988
-0.0730593
-0.0508348
-0.06673
-0.0928132
-0.0772788
-0.0792515
-0.10824
-0.0790983
-0.07454
-0.0959557
-0.0616279
-0.0602462
-0.0630822
-0.0499945
-0.0392571
-0.029873
-0.0318762
-0.0418515
-0.0490752
-0.0468964
-0.0363353
-0.0381004
-0.0391918
-0.0297423
-0.0218995
-0.0293227
-0.0212567
-0.0258364
-0.0341411
-0.033785
-0.0307946
-0.0392522
-0.039252
-0.0337851
-0.0258363
-0.0341406
-0.0276117
-0.0288478
-0.023721
-0.020784
-0.0168542
-0.0388765
-0.0324512
-0.0372082
-0.0453921
-0.0447934
-0.0346287
-0.0390944
-0.0498043
-0.0779109
-0.0752608
-0.0555826
-0.0783965
-0.0585477
-0.056833
-0.0820006
-0.0575939
-0.0823856
-0.0802822
-0.0860778
-0.0856665
-0.0793179
-0.0918888
-0.0781084
-0.077878
-0.0818305
-0.0812959
-0.0607806
-0.0603794
-0.0556415
-0.0485829
-0.0446721
-0.060379
-0.0735051
-0.0759455
-0.0618807
-0.0732858
-0.0659378
-0.0633816
-0.0569262
-0.0432747
-0.032741
-0.0240048
-0.0276119
-0.0238741
-0.0325949
-0.0372082
-0.0346289
-0.0388767
-0.0288481
-0.023675
-0.0168208
-0.0117215
-0.00833253
-0.00837408
-0.0117856
-0.0169202
-0.0198908
-0.0207687
-0.0238129
-0.0325108
-0.0371302
-0.0447887
-0.0484349
-0.0485503
-0.0371741
-0.0323538
-0.0428715
-0.0429833
-0.0553283
-0.0731611
-0.0603986
-0.0553994
-0.0734649
-0.0638927
-0.0507575
-0.0485835
-0.0431569
-0.0430861
-0.0559105
-0.0324535
-0.0198718
-0.0208973
-0.00975227
-0.0101839
-0.00737078
-0.00833297
-0.0117559
-0.016855
-0.0237247
-0.0504872
-0.0430816
-0.025265
-0.0185689
-0.0132577
-0.0145756
-0.00987189
-0.0121368
-0.0109669
-0.00549515
-0.00590921
-0.00638434
-0.00631589
-0.00606354
-0.00595515
-0.0062319
-0.00640676
-0.00552482
-0.00640956
-0.00475827
-0.00606134
-0.00659111
-0.00531971
-0.00575388
-0.00591549
-0.00693286
-0.0275851
-0.0338384
-0.0304373
-0.051353
-0.0526837
-0.0783963
-0.0770045
-0.00454946
-0.00457025
-0.018479
-0.0215733
-0.0154502
-0.0386774
-0.0223508
-0.0307014
-0.0111458
-0.0160594
-0.00455524
-0.00473522
-0.00443608
-0.0795401
-0.0908355
-0.0769556
-0.0776439
-0.0769545
-0.0593572
-0.0618815
0.00681007
0.00675363
0.00846063
0.00782022
0.0084366
0.00864838
0.010495
0.00990248
0.00773761
0.00866082
0.00665288
0.0044361
0.00536438
0.00506044
0.00525043
0.00541401
0.00518699
0.0054177
0.00525327
0.00503966
0.00534392
0.00487198
0.00558235
0.00476728
0.00722084
0.00538193
0.0046773
0.00576478
0.00569673
0.00457041
0.00569668
0.00467725
0.00538186
0.00558234
0.00722087
0.00476731
0.00695664
0.00828854
0.00487182
0.00534394
0.00503967
0.0052533
0.00541772
0.00875182
0.00655414
0.00651821
0.00665269
0.0087187
0.00541404
0.0052504
0.00506035
0.00536429
0.00487325
0.0084366
0.00537644
0.00575376
0.00946331
0.00672864
0.00587852
0.00610061
0.00946311
0.0057539
0.00537625
0.00843698
0.00625488
0.00489956
0.00698344
0.00686329
0.00883439
0.00883355
0.00807026
0.0103147
0.00922797
0.012312
0.0110186
0.0121368
0.0123564
0.0109668
0.0146604
0.0145372
0.0122531
0.00921298
0.0102087
0.01032
0.00743319
0.0104536
0.0148838
0.0208191
0.0282985
0.0372545
0.0477181
0.0812959
0.0802151
0.0647174
0.0785138
0.075245
0.0777707
0.109171
0.077364
0.0790978
0.108243
0.0792512
0.0772789
0.0918886
0.0798522
0.0793162
0.0544005
0.0819999
0.0611847
0.0993778
0.0935336
0.0780924
0.103437
0.0780899
0.093534
0.0993772
0.0798528
0.0793162
0.0772789
0.0918888
0.0792512
0.10824
0.0790977
0.0773642
0.0679994
0.0678594
0.0647172
0.0752451
0.0777707
0.0785139
0.107825
0.0782315
0.090836
0.0781766
0.107824
0.0784854
0.0772568
0.0753186
0.0677869
0.067787
0.0772571
0.0784857
0.107823
0.078179
0.0908354
0.0795401
0.0782291
0.107825
0.0619401
0.0663169
0.096127
0.0593564
0.0663774
0.0618808
0.0642903
0.0659376
0.0633812
0.0659376
0.0520203
0.0607808
0.060781
0.0958684
0.0642901
0.06188
0.0663775
0.0593581
0.0663179
0.0619396
0.064195
0.0660202
0.0633181
0.0658705
0.0641387
0.0611333
0.0652336
0.0587558
0.0672295
0.0928123
0.06673
0.0663469
0.0608944
0.054041
0.0473908
0.0413712
0.0357043
0.0306058
0.0260569
0.021972
0.0185059
0.0154268
0.0129459
0.0108444
0.00893505
0.00869463
0.00858126
0.0086111
0.0086606
0.00843643
0.00782029
0.008649
0.00698358
0.00489952
0.00625491
0.00443639
0.00750726
0.00743326
0.0104537
0.0148839
0.0208192
0.0282986
0.0372545
0.0477182
0.0812958
0.0802151
0.0509309
0.0533872
0.0790856
0.056306
0.0563057
0.0533873
0.0509307
0.0790856
0.0533689
0.0678588
0.0679997
0.0745398
0.0658899
0.0807799
0.0518525
0.0526837
0.0815062
0.0780625
0.0788889
0.0763714
0.0788889
0.0807798
0.0544003
0.0575931
0.0819999
0.062041
0.062041
0.057593
0.0825181
0.0551501
0.0555824
0.0555822
0.0783962
0.0551495
0.0802818
0.0814257
0.0805263
0.0781071
0.0856673
0.08068
0.0865214
0.104011
0.0702145
0.0514688
0.0807539
0.0650934
0.0581056
0.0700453
0.0655838
0.0784301
0.0669976
0.0669972
0.0421731
0.0633645
0.0378779
0.0562418
0.0495592
0.0292229
0.0431199
0.0372837
0.0218112
0.0320011
0.0271796
0.0157909
0.0230504
0.0192939
0.0111594
0.016252
0.0135293
0.00783526
0.0114115
0.00983284
0.00585199
0.00800433
0.00503776
0.00602267
0.00602269
0.0057647
0.00548991
0.00528534
0.00495913
0.00682104
0.004815
0.00481503
0.00485113
0.00689131
0.00488008
0.00488008
0.00475113
0.00676421
0.00525326
0.00525343
0.00515853
0.00731076
0.00627773
0.0062806
0.00693583
0.00756998
0.0057766
0.00697501
0.00581959
0.00869146
0.00584097
0.00538516
0.00651087
0.00475831
0.00640961
0.00638179
0.00623191
0.00640689
0.00573193
0.00867733
0.00573629
0.00560485
0.00664921
0.00454945
0.00563192
0.00622533
0.00746582
0.00747843
0.00795075
0.0111818
0.0159144
0.0222404
0.0301936
0.0396727
0.0506464
0.0510187
0.0642543
0.0630815
0.0636759
0.0638862
0.0586673
0.0513908
0.0454867
0.0393844
0.0341883
0.0291284
0.0249109
0.020897
0.0176738
0.0146609
0.0123563
0.0103204
0.00773782
0.00990285
0.0104942
0.0103156
0.0123102
0.0113202
0.0123111
0.0146095
0.0147614
0.0141641
0.0172863
0.01764
0.0157355
0.0202748
0.0156937
0.0176739
0.013181
0.0174967
0.0175284
0.0160591
0.0207679
0.0207964
0.0175981
0.0132133
0.0145751
0.0112251
0.0122499
0.0102619
0.00792387
0.00861112
0.00681065
0.00651814
0.00871873
0.00622554
0.00584093
0.00869139
0.0058192
0.00697425
0.00577556
0.00757059
0.00693275
0.00591559
0.00515864
0.00533323
0.00606129
0.00475869
0.00440338
0.00651091
0.00640956
0.00538499
0.00563199
0.00454948
0.00749146
0.00475108
0.00742579
0.00787551
0.0110199
0.0156681
0.0218994
0.0297423
0.0390943
0.049804
0.0779109
0.0813865
0.079836
0.0789896
0.077006
0.0866589
0.0778792
0.10917
0.0860773
0.0658912
0.0518525
0.0526833
0.0783961
0.0585475
0.0570248
0.0611836
0.0604997
0.0630804
0.0622865
0.0498745
0.062914
0.0640772
0.0506724
0.0584808
0.0563793
0.0625369
0.0506296
0.0553976
0.0734649
0.0731601
0.0730595
0.0750679
0.0648781
0.0533523
0.056302
0.0613012
0.0551432
0.0428049
0.0435871
0.041926
0.0318137
0.032926
0.037957
0.0492919
0.048434
0.0573381
0.0577302
0.0510151
0.0513886
0.044656
0.0571078
0.0513536
0.0499942
0.0780624
0.0815059
0.053369
0.0813218
0.080177
0.0802818
0.0823861
0.0611842
0.0687044
0.068701
0.0693248
0.0700222
0.0622516
0.0524144
0.0413378
0.0314659
0.0232078
0.016675
0.0118477
0.0086156
0.0067032
0.00615831
0.00640139
0.00640137
0.00653808
0.00838156
0.0117684
0.0167326
0.0233958
0.0241288
0.0282742
0.0324
0.0237538
0.0168962
0.0171799
0.0204289
0.0198903
0.0247371
0.0246975
0.0207685
0.0207534
0.0186804
0.0246197
0.0289685
0.0258268
0.0337021
0.0392538
0.0346108
0.0446291
0.0404528
0.0449554
0.0391134
0.0346435
0.044789
0.0514879
0.0446701
0.0490749
0.0392567
0.0298727
0.0307015
0.0338603
0.0289383
0.0258671
0.0338387
0.0393211
0.0304374
0.0371299
0.0429825
0.055327
0.0602452
0.0616272
0.0959551
0.0745398
0.0508347
0.0603987
0.0958599
0.0638924
0.0759441
0.0735054
0.0556621
0.0559168
0.0507559
0.0485498
0.0428709
0.0323535
0.0325104
0.0238126
0.01692
0.0117854
0.0117781
0.0120038
0.0143905
0.0139871
0.017598
0.0175282
0.0145753
0.0145373
0.013181
0.0174968
0.0160593
0.0157345
0.021998
0.0225372
0.0206941
0.0187198
0.0207968
0.0159363
0.0197424
0.0271799
0.0185689
0.0320011
0.0218115
0.0372845
0.0252646
0.0431201
0.0292235
0.0495603
0.0332609
0.0562415
0.0378786
0.0633651
0.0420791
0.0719411
0.0491006
0.0749937
0.0516545
0.0481246
0.0568328
0.0568327
0.0749936
0.0491005
0.0719412
0.0481244
0.0784308
0.0514687
0.0655839
0.0629666
0.0700456
0.0581057
0.0650936
0.0672299
0.0807541
0.0687007
0.0687062
0.0823859
0.0806808
0.0805277
0.0856667
0.0781052
0.0860771
0.0801752
0.0818306
0.0826534
0.0752606
0.0533268
0.0534316
0.0509174
0.0421732
0.0617203
0.0542477
0.0478905
0.0416895
0.0416884
0.0251248
0.0360771
0.0221564
0.0309452
0.0184789
0.0263526
0.0160557
0.0222995
0.0132217
0.0187511
0.0113502
0.0157623
0.00931288
0.0131772
0.00796669
0.0112403
0.0066496
0.00936536
0.00585696
0.00869314
0.00635519
0.00869316
0.00503769
0.00800429
0.00585197
0.00983302
0.00653001
0.0114115
0.00783541
0.0135294
0.00928761
0.0162521
0.0111594
0.019294
0.0132574
0.0230506
0.0157911
0.0160558
0.0222996
0.0154503
0.0187508
0.0157627
0.013177
0.0112405
0.00787446
0.00936538
0.00585705
0.00695717
0.00982172
0.00796684
0.0102088
0.0143717
0.0202164
0.0278176
0.0371287
0.0478845
0.0586376
0.0586372
0.0693259
0.0648783
0.0533514
0.047884
0.0617213
0.0382704
0.0542466
0.0331028
0.0478913
0.0296282
0.0363351
0.0398169
0.0331031
0.0386773
0.0302808
0.0251247
0.0360765
0.0309459
0.0263524
0.0184789
0.0223118
0.0215736
0.015987
0.0132218
0.0112695
0.00931288
0.0109141
0.0080781
0.00664945
0.00685381
0.00852115
0.00528532
0.0054899
0.00710902
0.00580705
0.00580681
0.00710904
0.00766275
0.00503786
0.00599109
0.00646419
0.00652686
0.00443655
0.00542597
0.00621512
0.0058191
0.00872614
0.00589178
0.00708635
0.0063135
0.00624651
0.00551955
0.00594374
0.00598018
0.00622183
0.0079856
0.00598029
0.00766291
0.00599138
0.00503785
0.00461189
0.00652685
0.00542601
0.00443661
0.0045368
0.00664923
0.00560487
0.0057362
0.00867716
0.00573195
0.00640686
0.00600794
0.00594358
0.00605787
0.00646018
0.00461179
0.00773718
0.00638072
0.00639542
0.00600788
0.00552521
0.00616875
0.00638071
0.00646016
0.00495912
0.00773724
0.00695716
0.00845663
0.0118355
0.016828
0.0235051
0.0318995
0.0418975
0.0468963
0.038271
0.0468962
0.0506465
0.0420794
0.0663465
0.0510184
0.0573378
0.0446701
0.0510145
0.0404529
0.0446287
0.0346101
0.0392538
0.039384
0.0300573
0.0332494
0.0341407
0.0301025
0.0386619
0.0440428
0.045392
0.0397461
0.0509554
0.039694
0.0454866
0.0513911
0.0513881
0.057108
0.0446566
0.0586666
0.0506303
0.0563788
0.0584808
0.050672
0.062537
0.0638865
0.0636753
0.0513535
0.0577305
0.0630811
0.0642538
0.0616272
0.0570249
0.0611835
0.0522737
0.0605
0.0569806
0.0630801
0.0497745
0.0622864
0.0629145
0.0498737
0.0735051
0.0732855
0.0603793
0.0569263
0.0634006
0.0514771
0.057394
0.0573943
0.0446712
0.0515317
0.0397458
0.0453922
0.044043
0.050955
0.0396946
0.0386622
0.0301029
0.0341409
0.0332495
0.0300578
0.0283962
0.0220786
0.024879
0.0242968
0.0220385
0.0236747
0.0168205
0.0117213
0.00833231
0.00837413
0.00835958
0.00850124
0.0100349
0.00976651
0.0123391
0.0122498
0.0102621
0.0102087
0.00921285
0.0122533
0.011225
0.0110526
0.00785546
0.00792385
0.00718368
0.0068365
0.0065928
0.00455526
0.00696327
0.00683675
0.00718979
0.00707397
0.00699141
0.00518724
0.00473524
0.00706986
0.0097519
0.0139664
0.0198715
0.0275837
0.0371734
0.0388772
0.0430858
0.0431569
0.0325936
0.0324505
0.028848
0.0276112
0.0372078
0.0394671
0.0392516
0.0307948
0.0337848
0.0337849
0.0258361
0.0289941
0.0226109
0.0246647
0.0246646
0.0186841
0.0209593
0.0157358
0.0176405
0.0172862
0.0202754
0.0156939
0.020784
0.023723
0.0238737
0.0170005
0.0168511
0.0146097
0.0140276
0.014761
0.0110187
0.0123128
0.0121366
0.0141645
0.0109669
0.0101836
0.0117556
0.0119016
0.00846051
0.00833216
0.0073707
0.00696419
0.00680967
0.00675253
0.00569867
0.00424822
0.00501731
0.00478288
0.00504251
0.00424465
0.00570224
0.00531973
0.00658182
0.0068259
0.00863445
0.00987209
0.00922778
0.0105244
0.0102589
0.00923395
0.0102157
0.00786352
0.014641
0.0132135
0.0145632
0.0111457
0.0139813
0.0113501
0.0139813
0.0197424
0.0272031
0.0301935
0.0396726
0.0332608
0.0540397
0.040106
0.0447884
0.0346429
0.0391126
0.0307011
0.0337018
0.0258264
0.028968
0.0291278
0.0220382
0.0242969
0.0248786
0.0220779
0.0283957
0.0291841
0.025836
0.0289939
0.0276115
0.0327405
0.0432744
0.0556412
0.0485819
0.0485831
0.060378
0.0569262
0.0640765
0.0634011
0.060253
0.0585476
0.0490749
0.0499943
0.0392567
0.0418514
0.0381003
0.0363353
0.0296281
0.027203
0.0221567
0.028527
0.0318761
0.0234868
0.0168105
0.0118167
0.00844004
0.00749085
0.00756843
0.00747845
0.00795074
0.0111818
0.0159143
0.0222403
0.0185686
0.0306049
0.022351
0.0247369
0.0187197
0.0246975
0.0225369
0.0246196
0.0186805
0.0207531
0.0208965
0.0249109
0.019871
0.0198898
0.020428
0.0233959
0.0318136
0.0419253
0.0371279
0.0278171
0.0202161
0.0143715
0.0167327
0.0117683
0.0102089
0.00752828
0.00838127
0.00653798
0.00683733
0.00718961
0.00893514
0.00786355
0.00869449
0.0068364
0.00655416
0.00473517
0.00746581
0.00785541
0.0110526
0.0157344
0.0219979
0.0298727
0.0381002
0.028527
0.0258669
0.0290251
0.0289378
0.0338601
0.0338384
0.0357043
0.0304365
0.0413702
0.0252647
0.0473913
0.0379553
0.0492912
0.0608943
0.0613024
0.06673
0.0508346
0.0652354
0.0587537
0.0928123
0.0750615
0.0730557
0.0611327
0.064139
0.095955
0.0658702
0.0633204
0.0660214
0.09586
0.0641953
0.0734642
0.0731587
0.0602466
0.055141
0.0563012
0.0428044
0.0435884
0.0323985
0.0329254
0.028273
0.0275846
0.0371294
0.0393207
0.0449554
0.0484336
0.0514882
0.0553258
0.0429816
0.0325096
0.0238121
0.0237531
0.0241285
0.0168956
0.0159361
0.0185059
0.0154265
0.0111456
0.012339
0.00923385
0.0102157
0.0108443
0.00652994
0.0129458
0.00928753
0.0100347
0.01439
0.0171801
0.0139868
0.014563
0.011778
0.0120042
0.00835977
0.00850069
0.00696354
0.00455518
0.0069565
0.00828851
0.0063137
0.00589172
0.00872623
0.00581913
0.00621525
0.00875179
0.00659285
0.00707395
0.00858139
0.00976629
0.00975168
0.0139658
0.0169196
0.0117853
0.00837413
0.00699164
0.00706961
0.00833235
0.0117211
0.0168201
0.0236742
0.0323531
0.0428708
0.0553973
0.0603996
0.0638928
0.0556609
0.0431558
0.0372082
0.044793
0.0447929
0.0405807
0.0513067
0.0515311
0.0446719
0.050487
0.0504869
0.0602529
0.0569807
0.0391914
0.034628
0.0391914
0.0346279
0.0394671
0.0392517
0.0293224
0.0293226
0.0212566
0.0212566
0.0206939
0.014641
0.0102589
0.0098217
0.00718369
0.00748616
0.00485111
0.00735661
0.0105244
0.01503
0.0150299
0.0131843
0.0175311
0.0161345
0.0175316
0.0131843
0.0140276
0.017114
0.0199051
0.0207984
0.020798
0.0209596
0.0186841
0.0199053
0.0240044
0.0238734
0.0325945
0.0288477
0.038876
0.0371726
0.0485497
0.0507559
0.0559156
0.0430851
0.0275829
0.0341882
0.032453
0.0237244
0.0207833
0.0170002
0.0119014
0.0120195
0.00987188
0.0101834
0.0146096
0.0168532
0.0117554
0.00737085
0.00833216
0.00736807
0.00672798
0.0073685
0.00686321
0.00735657
0.00681058
0.00749144
0.00440336
0.00638428
0.00590917
0.00549488
0.00602225
0.0063843
0.00631577
0.00590913
0.00549436
0.00623184
0.00595463
0.0060635
0.00595528
0.00631589
0.00533334
0.00591354
0.00531996
0.00610009
0.00702026
0.00659129
0.0067624
0.00606136
0.00789925
0.00638218
0.00696442
0.0146103
0.00750728
0.051307
0.0759439
0.00639545
0.00624644
0.00646428
0.00708649
0.00551965
0.00552505
0.0132573
0.0219717
0.0260566
0.0516543
0.00752828
0.0958689
0.0753176
0.0644512
0.0777488
0.0868516
0.0789898
0.0813218
0.0868133
0.0776438
0.0868131
0.076956
0.0868513
0.0777489
0.0644516
0.0795398
0.0961267
0.10909
0.0769544
0.0866591
0.0778804
0.0770065
0.0291841
0.0275852
0.0290255
0.0223513
0.00748612
0.00453678
0.0293289
0.0495214
0.0574591
0.0401055
0.0522739
0.0497746
0.00487295
)
;

boundaryField
{
    face
    {
        type            calculated;
        value           nonuniform List<scalar> 
154
(
-0.08
-0.08
-0.08
-0.08
-0.08
-0.08
-0.08
-0.08
-0.08
-0.08
-0.08
-0.08
-0.08
-0.08
-0.08
-0.08
-0.08
-0.08
-0.08
-0.08
-0.08
-0.08
-0.08
-0.08
-0.08
-0.08
-0.08
-0.08
-0.08
-0.08
-0.08
-0.08
-0.08
-0.08
-0.08
-0.08
-0.08
-0.08
-0.08
-0.08
-0.08
-0.08
-0.08
-0.08
-0.08
-0.08
-0.08
-0.08
-0.08
-0.08
-0.08
-0.08
-0.08
-0.08
-0.08
-0.08
-0.08
-0.08
-0.08
-0.08
-0.08
-0.08
-0.08
-0.08
-0.08
-0.08
-0.08
-0.08
-0.08
-0.08
-0.08
-0.08
-0.08
-0.08
-0.08
-0.08
-0.08
0.08
0.08
0.08
0.08
0.08
0.08
0.08
0.08
0.08
0.08
0.08
0.08
0.08
0.08
0.08
0.08
0.08
0.08
0.08
0.08
0.08
0.08
0.08
0.08
0.08
0.08
0.08
0.08
0.08
0.08
0.08