/*--------------------------------*- C++ -*----------------------------------*\
| =========                 |                                                 |
| \\      /  F ield         | OpenFOAM: The Open Source CFD Toolbox           |
|  \\    /   O peration     | Version:  2306                                  |
|   \\  /    A nd           | Website:  www.openfoam.com                      |
|    \\/     M anipulation  |                                                 |
\*---------------------------------------------------------------------------*/
FoamFile
{
    version     2.0;
    format      ascii;
    arch        "LSB;label=32;scalar=64";
    class       volScalarField;
    location    "2.4";
    object      gradTx;
}
// * * * * * * * * * * * * * * * * * * * * * * * * * * * * * * * * * * * * * //

dimensions      [0 -1 0 1 0 0 0];

internalField   nonuniform List<scalar> 
2658
(
0.00864341
0.0126017
0.00405315
-0.000379314
-0.0182954
-0.0154742
0.0162763
0.0160602
-0.00030945
0.0219706
-0.0147347
-0.0105996
0.00698251
0.00836334
0.00641471
-0.000602565
-0.000287301
-6.58025e-05
-0.00704753
-0.00909945
-0.0086024
-0.0200106
-0.0240204
0.0181209
-0.00769393
-0.00945504
-0.020363
-0.00295503
-0.0149142
-0.015986
-0.014914
-0.0203634
-0.0094556
-0.0240218
-0.00769349
0.0181207
-0.0100009
0.00460292
-0.0200071
-0.00860484
-0.00909928
-0.00704716
-6.71689e-05
0.000614231
-0.0123264
0.0115332
-0.0147344
-0.000541672
-0.000604579
0.0064149
0.00836378
0.00698233
0.0189678
-0.00405017
0.0213491
0.0175331
-0.00940437
0.000932332
-0.0334279
0.0177265
-0.00940382
0.0175335
0.021349
-0.00404952
0.0046348
-0.0352259
0.00457008
-0.000269336
-0.011587
-0.0115883
-0.00053692
0.0117138
-0.00071262
-0.0128107
0.000231162
-0.0134874
0.0173014
-0.000129665
-0.0150434
0.0168253
-0.0198627
-0.000363591
0.0210468
-0.019072
-0.000506651
-0.000310469
-5.58384e-05
5.62389e-05
9.18004e-05
9.64551e-05
8.1417e-05
-0.000217373
0.000196342
-0.0013237
0.000897483
-0.000159493
-0.00111336
5.95465e-06
0.00112075
-0.000912384
0.000494681
0.00126869
0.00110263
0.00090852
0.000945603
-0.00191054
-0.000370964
-0.000265316
-9.10525e-05
0.000525321
0.00112805
0.000450889
0.000896409
0.000450829
0.00112806
0.000525275
0.00094565
-0.00191051
0.0011027
0.000908614
0.0012687
0.000494611
-0.000912429
0.00112077
-0.00176838
0.00177475
-0.00132364
-0.000159454
-0.00111338
0.000897449
-0.000503592
-0.00123618
-0.000848397
-0.000771948
-0.00048995
5.57886e-05
-0.000226588
-0.00131617
0.00108386
0.00108329
-0.000226507
5.55234e-05
0.000519977
-0.000540736
-0.000621961
-0.000539464
0.000300607
0.000389734
-0.00108545
-0.00112949
-0.000943526
-0.00119578
-0.00117031
-0.00121244
-0.00093403
-0.00166103
-0.00151267
-0.000638557
-0.000726094
-0.000528422
2.47646e-06
1.22909e-06
-4.56522e-06
0.000509059
0.000723193
0.000652011
0.00154447
0.00191819
-0.000441403
0.00118782
-0.00303078
0.00342574
-0.00404367
0.00486816
-0.00572635
0.00691144
-0.00806657
0.00960969
-0.0110935
0.0130136
-0.0147958
0.0172155
-0.0191053
0.0227892
-0.0228034
0.0242335
-0.0250269
0.02197
-0.0182963
-0.000379393
-0.0154733
0.00456928
-0.0352252
0.0046349
-0.0105998
0.0041719
-0.000506719
-0.000310494
-5.60354e-05
5.60483e-05
9.18969e-05
9.65424e-05
8.14409e-05
-0.000217391
0.000196392
5.42806e-06
-0.000477439
-3.08824e-05
0.000670074
0.000670054
-0.000477481
5.45898e-06
-3.07528e-05
0.000221572
0.00177479
-0.00176847
0.000121394
0.00136336
-0.000130449
4.78205e-05
-0.00020331
2.60916e-06
1.93088e-05
0.000185651
0.000120509
0.000185647
-0.000130639
-0.000370911
-0.000877868
-0.000265276
0.000194345
0.000194349
-0.000877894
-3.81234e-05
0.000548424
-0.000651084
-0.000651149
1.09498e-05
0.00054849
-1.19965e-05
-0.000120239
-0.000157848
-0.000145392
0.000650639
-0.00014803
-4.9123e-05
-0.0010825
0.000143741
-0.000439849
0.000682737
0.000724265
0.00160293
0.00113697
-0.00298539
0.00196176
-0.00320251
-0.00320234
-8.08398e-05
-0.00326072
6.89216e-05
0.00363407
-0.00446386
5.13535e-05
0.00522521
-0.00630241
9.66187e-06
0.00738025
-0.0087513
-6.43926e-05
0.0101438
-0.0117722
-0.000196129
0.0135958
-0.0152134
-0.000371029
0.0182218
-0.0184442
-0.00100527
0.0278486
0.0045166
0.0322925
0.0322924
-0.00295451
0.0070722
-0.0025977
0.0102406
0.000511881
-0.00652635
-0.00652637
0.00708213
-0.000357033
-0.00836521
-0.00836509
0.00223639
-0.00266315
-0.0117581
-0.0117582
0.00389003
0.016578
0.00389013
0.00626801
0.0181049
0.00760398
0.010385
0.013621
-0.0203087
-0.0118198
0.0117354
0.00758657
-1.3555e-05
0.00223647
-0.00134303
-0.00343118
0.0142371
-0.0103503
0.00640892
0.0148941
0.00851261
-0.00449489
-0.00605543
-0.00449467
-0.00343136
-0.0118195
-0.0203084
0.0076041
0.0181054
0.00626845
0.0117354
0.00758669
0.00851368
0.0148929
0.00640788
-0.0103504
0.0142366
0.0017706
0.0128475
-0.000327454
-0.0134168
0.0208492
-0.000334071
-0.00372289
-0.021474
-0.000398159
-0.00251454
0.000146373
0.000121623
5.91382e-05
3.41728e-05
1.95194e-05
3.97107e-06
-6.99136e-06
-6.56819e-05
0.00305239
-0.0032999
0.00333014
-0.00299516
0.00332504
-0.00415158
0.00482405
-0.00589877
0.0069089
-0.0082794
0.0096702
-0.0113362
0.0131526
-0.0150423
0.0173004
-0.0190715
-0.00030926
0.0160603
0.0162742
0.011716
-0.00928886
0.000220087
-0.00928703
0.00896108
0.0123716
0.0122662
-0.0102426
-0.00996004
0.000329239
0.00906317
4.94131e-05
0.013154
-0.00019367
-0.0150661
0.0146925
-3.1519e-05
-0.0126826
0.0117297
-0.0137908
-3.27146e-05
-0.0168135
-6.16903e-05
0.0192821
-0.0211763
-0.000110629
-0.0250269
-0.000780301
0.0115332
-0.000541713
0.00177096
-0.0214743
-0.00372272
0.000676429
-0.000272953
-0.000242798
-0.000206555
-0.000128392
-6.52714e-05
-2.98244e-05
-1.2006e-05
-3.65985e-06
1.60893e-06
1.93317e-05
2.61552e-06
-0.000203228
1.08821e-05
4.77995e-05
0.00136334
0.000121305
-5.51003e-05
-0.00159936
0.00141021
-0.00141017
0.00154578
-0.000632472
0.00298032
-0.000807613
0.00204009
0.000153434
-0.00272781
-0.00274535
0.00249261
8.55447e-05
-4.13451e-05
-0.000322301
8.51087e-06
0.0003656
0.000727544
0.000930776
-2.01464e-05
0.000127796
0.000371775
3.37815e-05
-8.20092e-05
-5.62838e-05
-0.000134757
-0.000226616
-0.000193105
0.000101076
0.000127287
5.03187e-05
-0.00346841
0.00373995
-0.00461838
0.00465649
-2.12221e-05
-0.00379309
-7.59141e-07
1.21745e-06
2.77678e-06
5.86221e-06
-0.000141111
-0.000207665
-0.00036857
-0.000347479
-0.000507043
-0.000632112
6.3274e-06
7.12497e-05
7.5077e-05
-0.00725168
0.00775771
-0.00925347
0.0093157
-7.24867e-05
-0.00791056
0.00663124
-4.6035e-05
-0.00552273
-4.4355e-06
0.00542773
-0.0065812
1.68563e-05
-0.00505754
0.00429381
1.70603e-05
3.09863e-06
-9.62257e-05
-0.00326033
0.000105654
0.00252092
0.000107518
-0.00294241
-0.00157605
0.000528659
-0.000146332
-6.9529e-06
-2.59013e-05
3.97695e-05
-4.8781e-05
5.99219e-05
-0.000348383
-0.000584061
-0.000389578
7.80531e-05
-0.00019817
-0.000159442
-6.36294e-05
8.80408e-05
0.000167101
0.000257724
8.07173e-06
7.89415e-06
-0.000298459
-0.000466359
-0.0010995
-0.000723826
-0.00134522
-0.00246017
-0.000519774
-0.000139279
5.70417e-05
-0.0137905
0.0146918
-0.0168139
0.0168256
-0.000194257
-0.0150653
0.0127424
-0.000113711
-0.0110688
-1.60653e-05
0.0108295
-0.0126828
-4.19172e-06
-0.0101494
0.00858767
1.05435e-05
4.68486e-06
7.25471e-06
-0.000109119
-0.00446371
5.7985e-05
0.00363417
6.91091e-05
0.00025714
-0.00421598
0.00472771
-0.005919
-0.00591891
-1.4183e-05
0.0068169
7.19833e-05
-0.00828467
-1.1603e-05
0.00952845
-1.57401e-05
-0.0112723
-1.29183e-06
0.0129179
-0.000245691
-0.0146598
8.39942e-05
0.0170957
-0.00100561
-0.0177511
0.000539491
0.0227347
-0.00385148
-0.0177825
-0.00238661
-0.0177822
0.00451653
0.027849
-0.001005
-0.0184432
-0.000770744
0.0182211
-0.000370881
-0.0152133
-0.000396922
0.0135964
-0.000195774
-0.0117704
-0.000179541
0.0101443
-6.40151e-05
-0.00875092
-6.68814e-05
0.00738027
1.00694e-05
-0.00630219
2.74587e-06
0.00522528
5.17277e-05
0.000143056
-0.000198064
-0.000198052
-0.000180468
0.000901801
7.47973e-05
-0.000372729
-0.000482544
-0.000539951
-0.000641255
-0.000780851
-0.000862626
-0.000618286
0.000363155
0.00157125
-0.00138145
-0.0114151
-0.0114152
-0.0117869
-0.00972554
-0.00352907
-0.0012802
-0.00527021
0.00866353
0.0141637
0.000255025
5.90173e-05
0.00084714
-0.00385098
0.0227335
0.000540034
-0.017751
-0.00161658
-0.000491903
-0.000492285
8.48756e-05
-0.0146597
0.0170952
-0.0010056
-1.59801e-06
-0.000144157
-0.00024611
0.0129162
-7.74468e-07
-0.0112715
-0.000290082
-0.000437099
-0.000363076
-0.000278512
-1.38353e-05
0.00681683
-0.00828468
0.00952813
-1.57166e-05
-0.000156666
-0.000134641
1.60441e-05
8.95863e-06
-5.36753e-06
-0.000114742
-8.08114e-05
0.00318646
0.000201373
0.00318671
0.000256933
-0.00421575
-2.82796e-05
0.00472819
0.000143255
-0.000109134
-0.000191666
-2.82005e-05
7.62845e-05
-9.61792e-05
-0.000146292
-0.00294253
0.000107533
0.00252089
0.000528572
0.00196166
-0.000439845
-0.0029855
0.000244954
0.00113699
0.00160292
0.000724194
0.00191828
0.000682755
0.000240789
-0.000607075
0.000338016
-0.000148059
-0.000157789
0.000650618
-0.000145477
9.89527e-05
4.84421e-06
5.8451e-06
4.80123e-06
1.51299e-06
5.93382e-06
9.89801e-05
-1.19417e-05
0.000338023
-9.11164e-05
-0.000607103
0.000240818
4.54216e-06
0.000194473
0.000165808
-0.00010445
-0.000637613
0.000194324
-0.000336229
0.00063117
0.00192461
-0.00110935
0.000382457
0.000175701
9.85949e-05
8.477e-05
1.25466e-05
-1.77849e-06
3.15585e-07
-5.84553e-06
-1.42791e-05
-3.3235e-05
1.82072e-05
2.35543e-05
5.77998e-05
0.000164748
-0.001291
-0.00333955
0.0137567
-0.00259764
0.00707231
-0.0152202
-0.00702039
-0.00701971
-0.0152213
-0.00774071
1.86393e-05
-0.0136914
0.0230672
0.00156288
-0.000950029
-0.0167432
-0.00157148
0.00976633
-0.00733889
-0.015965
-0.0131583
-0.0137365
-0.00927202
0.000871624
0.00193656
0.000873343
0.000234752
-0.0129301
0.00087377
-0.0077399
-0.0136917
1.93055e-05
0.00443511
0.0015634
-0.0167433
-0.000949751
0.00209153
-0.000333976
0.0208495
-0.0134174
-0.000326952
0.0128484
0.00101978
-0.000579834
0.0019372
0.00156648
-0.00436097
0.0044354
0.00309235
0.000168868
-0.00152712
-0.000579239
-0.000192177
0.00101921
-0.00188548
-1.36532e-05
-0.00134292
0.000676429
-0.00027303
-0.000780573
-0.000292996
-6.64602e-05
-6.48457e-06
1.80341e-05
-0.0180927
0.0192821
-0.0211772
0.0210475
-0.000364507
-0.0198622
-6.14605e-05
-0.000270831
0.000626922
0.000389521
-0.00018538
-0.000143815
-0.000113253
-8.85933e-05
6.51187e-05
0.00612047
-8.54006e-05
-0.000119059
-0.00388283
0.000163857
-0.00387921
0.00448398
0.000218611
-0.00544978
-0.00549219
0.00457102
0.000118849
0.00650913
0.000285733
-0.00748376
-0.00760573
0.000107298
0.00906396
0.000328106
-0.00995865
-0.0102432
4.97816e-05
0.0122667
0.00023084
-0.0128097
-0.0134891
-0.000128776
0.000848743
0.00141693
0.00462198
-0.00025483
-0.000279114
-0.000147681
-0.000460653
0.00306934
0.00322068
0.00405218
0.00216553
0.00131082
0.000833188
0.000525906
0.00029474
-1.07249e-05
-0.000119258
-0.000228864
-0.00279088
0.000206883
-0.00278972
0.00324856
0.000270012
-0.00395381
-0.003955
0.00324975
0.000147683
0.000121366
8.80742e-05
-3.12153e-05
2.0177e-05
-0.000183012
-0.000252153
0.00271042
-0.000251256
0.00161793
0.000186087
-0.00189517
-0.00189675
0.00161982
-0.000153538
0.000860524
-0.000172438
-0.000173622
0.00124094
-0.000140878
0.000861297
-0.000808648
0.00298122
-0.000632065
0.00249249
0.000153349
-0.00274472
-0.00272932
0.00204243
-0.000182894
-3.12042e-05
-6.97124e-06
-7.00033e-06
0.0001056
-0.00303084
-6.5579e-05
-0.00346864
1.72365e-05
-0.00461868
-4.33799e-06
-0.00552262
-4.59857e-05
0.00663178
-0.00589946
0.000118849
-0.00549175
-0.0054511
0.000218102
0.00457097
-0.00388235
-0.00388022
0.000163343
0.00320564
0.000117009
0.0048248
-0.00415234
0.00465682
-0.00379314
-2.1203e-05
0.00332588
8.55865e-05
-0.00299592
0.00333042
-7.94216e-07
0.00374018
-0.00330009
0.00305239
-0.00159944
-2.58347e-05
0.00141027
2.41034e-05
-0.00141031
2.0229e-05
0.00154634
0.00101227
-0.00052841
2.55561e-06
5.98415e-05
-4.86035e-05
3.97774e-05
0.000371652
0.000930797
0.000901959
-0.000180539
-0.00019806
-2.00405e-05
-0.000134914
-0.000198976
-0.000234697
-0.000226707
-0.000347287
-0.000288137
-0.000286258
-0.000233671
7.16594e-05
-0.000262639
-0.0002662
-0.000506249
-0.000724163
2.91722e-05
3.39189e-05
0.000460312
0.000459891
-0.00134706
-0.0117878
-0.00973432
-0.00353307
0.0227889
0.000122742
-0.0228028
0.000255159
-0.0123261
-0.000460607
-0.000398103
-0.00251449
0.000146518
0.00012159
5.92939e-05
3.41198e-05
1.95254e-05
3.97524e-06
5.79711e-05
-0.00404379
-8.6562e-05
-0.0050576
1.67983e-05
-0.00658149
-7.98872e-06
-0.00791095
-7.23807e-05
0.00931604
-0.00828023
0.00010696
-0.00760524
-0.00748537
0.000285731
0.00650856
0.00645378
-0.00030783
0.00467195
0.000337
-0.00543444
-0.00543564
0.00467319
-0.000307646
0.00645251
-0.000126144
0.000539402
0.000307223
0.000133968
0.000486964
-0.000153455
-0.000389921
-0.000933008
-0.00121877
-0.000907592
-0.000489829
-0.000772211
-0.00084873
-0.00110903
-0.00123637
-0.000503637
-0.000726038
-0.000638584
0.00038293
-0.00151296
-0.00166161
-0.000584151
-0.000322439
8.49875e-06
0.000365446
0.000723116
0.000509006
-5.52244e-05
-4.46266e-06
1.02122e-06
-0.000829493
0.00118789
-0.00157608
-0.0004415
0.000652251
0.00154419
0.000727108
3.40213e-05
0.000127584
0.000127092
0.00342578
5.03724e-05
0.00429388
-8.21531e-05
-5.55433e-05
0.000100558
0.004868
-0.00572707
-8.51786e-05
-0.0072525
1.06924e-05
0.00858754
-0.00925364
-1.60548e-05
-0.0110693
-0.000113916
0.0127425
-0.0113366
0.00967116
-0.000143283
7.64346e-05
-0.0101499
-4.4244e-06
0.01083
-2.98724e-05
-1.20504e-05
-3.65082e-06
1.68805e-06
3.15786e-06
7.46066e-06
4.61354e-06
-0.000134471
-0.000156347
-5.20067e-06
-5.10731e-06
-1.84592e-05
-3.26408e-05
0.0154845
4.0675e-05
-1.22217e-05
-6.38286e-05
0.0193911
0.000122666
-0.00033002
-0.000208592
-0.000144179
-0.000103112
-7.25768e-05
-4.46944e-05
-0.000164639
0.0030676
0.00224469
0.00224344
0.00306921
-0.00016458
-4.46788e-05
-7.27339e-05
-0.000228683
0.0044855
-0.000118983
-9.82405e-05
7.83861e-05
0.00029514
0.000526082
-0.000125956
-7.27498e-05
-0.000118611
-8.84422e-05
6.55335e-05
0.00612059
-0.000141651
-0.000191874
7.05754e-05
0.00691157
-0.00806686
-8.41363e-05
0.00960985
-0.0110938
-6.15437e-05
0.013014
-0.0147966
4.17757e-05
-0.0180928
-6.36437e-05
0.0193896
-0.0191065
-0.000770398
0.0172151
-0.000397615
-0.000519338
-0.000139947
5.68531e-06
-0.000366825
-0.000208379
-0.000300147
-0.00062758
-0.000467573
-0.00109165
-0.00127975
-0.00246553
-0.00527302
0.00866298
-0.0100006
0.00460107
-0.0137368
-0.0159648
-0.00733882
0.00976653
-0.00157184
0.000613897
0.0141632
-0.000146789
0.0242335
-0.000206611
-0.000128401
-6.54394e-05
-7.08716e-05
-0.000138715
-1.25044e-05
-1.37e-06
-0.00014405
-1.86423e-05
-0.000208549
8.72031e-05
0.000149482
-0.000144191
-0.000102995
-0.000400406
0.00905823
0.0065662
0.000365661
-0.00721988
-0.00722104
0.00656761
-0.000400487
0.00905718
-0.000109236
2.24684e-05
0.000320792
-7.37406e-05
0.000139635
0.000262878
0.000647514
-3.0933e-05
0.0123694
0.00896278
-0.000521033
-9.83497e-05
-0.000328734
0.00237472
-0.000152458
0.00708218
-0.000209568
5.90589e-05
0.000847371
0.00309128
0.010241
-0.0043615
0.000168455
-0.00152694
-0.00927149
0.0230667
-0.013158
0.000871949
-0.000192409
-0.000914723
0.00417195
0.000931904
0.00187262
0.00422281
0.00013361
-0.000712807
0.00187189
0.0126008
0.00864626
0.0219295
0.0120871
0.0177271
0.0196903
-0.000269453
0.00225839
0.00136501
0.000859804
-0.000109007
0.000832618
0.00131099
-3.03296e-05
-0.000521264
0.000263957
2.25354e-05
0.000257647
0.000167238
8.83769e-05
-4.11374e-05
1.12489e-06
2.54402e-06
5.41805e-06
7.5411e-05
0.00775822
7.38615e-06
7.26671e-06
5.78262e-05
0.0154832
1.83487e-05
-0.000269715
-0.000184808
0.000389088
0.000626827
-7.42293e-06
-6.7422e-05
-0.000254158
-0.000293661
0.00141698
0.00462137
0.00306898
0.00084855
0.000134624
0.00216383
0.00138024
0.00322145
0.000648337
-0.000113177
0.00690981
-6.35295e-05
-0.00015907
-0.000347752
-0.000197667
-1.04759e-05
0.000140796
0.000326127
-0.000329853
0.00137316
-0.000180224
-6.7099e-05
2.72167e-06
0.00542784
-9.83266e-05
0.00320578
0.000116923
0.00016578
0.000194433
4.54302e-06
-0.000336281
0.000244798
0.000194263
-0.0006377
-0.000104471
1.64614e-06
0.00192437
0.000631603
-0.00131637
-0.00115568
0.00123825
-0.000141446
0.000519485
-0.000906331
7.58263e-05
0.0117295
-6.09509e-05
-0.000110477
0.0020916
-0.000209257
-0.001886
0.000221547
0.00120299
-1.1067e-05
-0.000135182
-3.67468e-05
-0.000699234
-8.42876e-05
-3.12857e-05
-8.63883e-05
-8.20077e-06
-0.000829506
2.41107e-05
0.00101288
0.0136216
0.0103853
0.000210182
-0.00126367
0.00020968
0.0189681
0.0219306
-0.000583535
-0.000389586
7.83611e-05
0.000153431
0.0024925
0.00204032
-0.00272802
-0.0027451
8.5586e-05
-0.00299523
0.00154577
0.00101279
-0.000638743
-0.000726201
-0.000528385
2.41473e-06
1.25628e-06
-4.53983e-06
0.000509177
0.000723096
0.00065203
0.00154472
0.00191822
-0.00157604
0.00068272
0.000724253
0.00160296
0.000240924
0.00113698
0.00120296
0.00113699
0.00160294
0.000724302
0.00191837
0.000682729
-0.00157598
0.00118781
-0.000441445
0.00154447
0.000652168
0.000723239
0.000509095
-4.54042e-06
-5.51133e-05
0.00141031
-0.00141022
0.00154615
5.9816e-05
2.60515e-06
-0.000528469
-0.00072635
-0.000638607
-0.00151317
0.000382623
-0.00166157
-0.000140885
0.000861266
-0.000251359
0.00271039
-0.000172538
0.000860521
-0.000141505
-0.001661
0.000382436
-0.000632475
0.00298038
-0.000807655
-0.000183005
0.00161955
0.00161795
0.000185928
-0.00189651
-0.000164661
0.00306794
0.000163532
0.00320576
-0.00415194
0.000117139
0.00482405
-0.00552246
0.00465654
-2.12317e-05
-0.00379292
0.00332504
8.14162e-05
9.64868e-05
9.19654e-05
5.64182e-05
-5.57056e-05
-0.000310061
-0.000506216
0.00417214
-0.00343125
0.014237
-0.01035
0.00177078
0.0128479
-0.000327319
-0.0134172
0.00976634
-0.00733873
-0.0159645
-0.0137364
-0.0131578
-0.0136916
0.0230669
0.00443508
0.00309211
1.85518e-05
-0.00774102
-0.015221
-0.00702045
-0.0129303
-0.00702
-0.0152218
-0.00774082
-0.0136922
0.0230667
-0.0137363
-0.0131582
-0.015965
-0.00733878
0.00976634
-0.0134173
0.0208492
-0.021474
0.0142367
0.00177117
0.0128483
-0.0103501
0.00640734
0.0148924
0.0103848
0.00760352
0.0181045
0.00626848
0.00388975
0.011735
-0.0117586
-0.0117583
0.00388975
0.006268
0.0181042
0.00760348
0.0103844
0.0136201
0.0148938
0.00640843
0.00836349
0.00698191
-0.00405055
0.0189674
0.0213486
0.0219286
0.0175332
0.0177265
0.0196901
0.0177269
-0.0334282
0.000931581
0.000932123
-0.0094053
0.017533
0.0219286
0.0213487
0.0189682
0.00698149
0.00836339
0.00641526
-0.000602379
-0.000287021
-6.58049e-05
-0.00704746
-0.00909947
-0.00860298
-0.0200086
-0.02402
0.00460171
-0.0100006
0.0227886
-0.0191057
0.0172151
-0.0147965
0.0130132
-0.0110937
0.00960926
-0.00806702
0.00691164
-0.00572652
0.00486808
-0.00404385
0.00342578
-0.00303089
0.00305232
-0.00329982
0.00333027
-0.00299562
0.0024923
0.000153157
0.00204211
-0.000808627
0.0029812
-0.00063218
0.00101234
-0.0002174
8.14459e-05
9.6646e-05
9.18971e-05
5.6059e-05
-5.60395e-05
-0.000310458
-0.00050654
0.00417192
-0.00343119
-0.00134307
0.00223634
0.000676267
-0.00836505
-0.00836513
0.00223636
-0.00134298
0.000676404
-0.00372278
-0.0214743
0.0208493
-0.00157167
-0.0167434
0.00156283
-0.000950085
0.00209164
-0.000333814
-0.000398135
-0.00251463
-0.00129111
-0.00251456
0.00156256
0.00443501
0.0102405
0.00309226
-0.00259789
-0.00259774
0.0102406
0.000511515
-0.00652643
0.00708206
0.00708199
-0.000209476
-0.00652641
0.000168428
0.00156649
0.00193645
0.000872035
-0.00927188
0.000872583
0.000234079
0.013757
-0.00333987
0.00451629
-0.007694
-0.00945567
-0.0203646
-0.0149143
0.0322929
-0.0177824
0.0227334
0.0227343
0.000539654
0.0182214
-0.000370761
-0.0152134
0.0135961
-0.000195633
-0.0117706
0.010144
-6.40285e-05
-0.00875074
0.00738038
9.98193e-06
-0.00630261
0.00522542
5.15814e-05
-0.00446377
0.00363421
6.88851e-05
-0.00326055
0.00252103
0.000107554
-0.00294225
-0.000439746
-0.00298531
-0.0029853
0.00024087
-0.000606953
0.000194388
-0.000877842
-3.81534e-05
0.00054849
0.000548425
-0.000651056
-1.7752e-06
0.000670061
0.000670049
-0.000477488
9.85881e-05
0.0010838
0.00108327
-0.000226555
0.000300602
-0.000539454
-0.000540788
-0.000907582
-0.000489865
-0.000772297
-0.000848785
-0.00123642
-0.000503706
0.000897507
-0.0013238
0.00019632
0.000631572
0.00192438
-0.00110933
-0.000637728
-0.000104494
-0.00111338
5.98764e-06
0.00112074
-0.00176833
2.61753e-06
0.000221547
0.00177475
-0.000159518
1.93135e-05
0.000185682
-6.96219e-06
3.93754e-06
1.94745e-05
3.41782e-05
5.92307e-05
0.000121762
0.000146534
0.000122734
-0.0228034
0.0242335
-0.0250268
0.0219698
-0.0190708
0.0173002
-0.0150416
0.013152
-0.0113356
0.00966975
-0.00827957
0.0069089
-0.00589909
0.00482445
-0.00415217
0.0033257
8.54026e-05
-0.0027447
-0.00272901
-0.00189555
0.00224355
0.000207032
0.00224433
-0.0027904
-0.00387961
-0.00388257
0.00457102
0.00448451
0.000217961
-0.00549196
0.000119191
-0.00589935
-4.58492e-05
0.00663142
-0.00658123
-7.98742e-06
0.00775779
-0.00725167
0.00612043
1.69548e-05
0.00542755
-4.26293e-06
-0.00461839
0.00373993
-7.9806e-07
0.00333023
2.01971e-05
-0.0014102
6.00342e-05
-0.00015952
0.000897509
-0.00050373
-0.0012363
-0.000848639
-0.000771982
-0.000489976
-0.000906265
0.000519455
-0.000226613
5.58369e-05
-0.00131612
0.000631163
5.41437e-06
0.000196368
0.00192455
-0.00132364
0.00177474
0.000221569
-3.08068e-05
-0.00047743
8.47858e-05
8.81018e-05
0.000121403
0.000147636
0.000149494
8.72061e-05
-9.8086e-05
-0.000328569
0.00237473
-0.00266339
-0.00605552
-0.00449481
-0.00188596
0.00101953
-0.000192591
-0.000326829
-0.0015269
-0.0167432
-0.00094995
0.00209153
-0.000209218
5.89701e-05
0.000255103
-0.0123265
0.0115334
-0.0147344
0.00463472
-0.0352259
0.00456908
-0.0154736
-0.000378731
0.0162749
0.0160602
-0.0182964
-0.000309141
0.00141674
0.004622
-0.000254562
-0.00527187
-0.00972739
-0.0117868
-0.00134455
-0.0024707
-0.0035324
-0.00127965
-0.000467349
-0.00108835
-0.000725684
-0.000508339
-0.000626891
-0.00013965
-0.000519661
1.83799e-05
0.01939
-0.0211763
0.0192815
-0.0198622
-0.000364309
0.0210472
-0.000110843
-0.0002065
-0.00039824
-0.000334029
-0.00372285
-1.37642e-05
-0.000579405
0.000168809
-0.00436091
1.86428e-05
0.00707227
-0.00295459
-0.0114153
-0.00138067
0.0015721
0.000362983
-0.000619563
-0.000862654
-0.000781614
-0.000641356
-0.000540307
-0.000482436
-0.000372713
7.50852e-05
0.000901877
0.000901914
0.000930749
-2.00363e-05
-0.000135192
-0.000227348
-0.000348577
-0.000365818
5.95602e-06
-0.000299541
-0.000208581
-0.000141745
-0.000190805
7.09235e-05
7.54441e-05
0.00858733
-0.00925365
0.0077576
-0.00791041
-7.24346e-05
0.00931597
-0.0110685
-0.000113629
0.0127423
-0.0150657
-0.000193565
0.0168242
-6.08504e-05
-0.0168132
0.0146921
-3.30782e-05
0.0154839
-0.0180933
-6.38621e-05
-1.2229e-05
-0.00012822
-6.53999e-05
-3.14804e-05
-0.0126825
0.0108292
-4.04912e-06
0.011729
-0.0137903
-6.13455e-05
5.82127e-05
-7.158e-06
-6.74465e-05
-0.000147195
0.0141633
0.000614204
-0.00157167
0.00866244
-0.000293109
-0.000541229
0.00306834
0.00864409
0.0126003
0.00405128
0.00322901
0.000849107
-0.000270838
0.000627155
0.000389561
7.31774e-06
7.74521e-06
5.40668e-06
2.67704e-06
-8.22499e-05
-5.36902e-05
0.000100891
6.55494e-05
0.00612044
-0.00658131
0.00542769
-0.00552261
-4.6102e-05
0.0066316
-8.2361e-06
-1.20453e-05
-2.98253e-05
-1.60709e-05
4.66153e-06
1.07348e-05
-0.00725215
-8.5459e-05
-0.000134472
0.00738013
-6.6803e-05
-0.00875167
-6.44768e-05
0.010144
-0.000178871
-0.0117711
-0.000196099
0.0135954
-0.000396454
-0.0152131
-0.000372026
0.0182212
-0.000770732
-0.018443
-0.00100515
0.0278484
0.0181201
-0.00385192
0.000847299
0.00084721
0.0278489
-0.00100503
-0.018443
-0.00385181
-0.0177817
0.00451664
0.0322925
-0.00238606
-0.014914
-0.0203633
-0.00945521
-0.0240211
-0.00769388
-0.0029544
0.0070723
-0.00436109
0.000872928
0.00193697
-0.00927179
0.000872201
-0.00152708
-0.000579825
-0.000914767
-0.000357093
-0.000152518
-0.000242771
0.000164725
-0.000492184
0.000539672
-0.0177503
0.0170965
-0.01466
0.0129167
0.0129164
-6.63284e-07
-0.0112722
-1.5397e-05
0.00952791
-1.12601e-05
-0.00828467
7.21625e-05
0.00681681
-1.40219e-05
-0.0059195
0.000143254
0.0047281
-2.82794e-05
-0.00421585
0.000257101
0.00318657
-8.07872e-05
-0.00320243
0.000528792
0.00196189
0.000244943
0.00196176
-0.000439776
-0.0029424
0.000107499
0.00252099
0.000105683
-0.00326052
6.89511e-05
0.00363409
5.81494e-05
-0.00446387
5.14705e-05
0.00522515
2.85481e-06
-0.00630264
9.70792e-06
7.20085e-05
0.00681671
-3.64291e-05
-0.00591905
0.00472789
-0.00421566
0.00318657
0.00020122
-0.00320239
0.000528559
-0.000146274
-9.61612e-05
0.000257112
-0.000198469
-0.000199116
-0.000235012
-0.000288407
-0.000265221
3.209e-05
0.000460485
0.000460886
-0.0114151
-0.0117866
-0.00134443
3.11008e-05
-0.0177495
-0.00100634
0.0170964
8.45308e-05
-0.0146598
-0.000245915
-0.000144059
-0.000492481
8.4134e-05
-0.000698769
-0.000436979
-9.01939e-07
-0.0112719
0.0095282
-0.00828493
-1.15266e-05
-0.000362663
-0.000134161
-0.000278291
-1.41711e-05
-0.000191623
-2.83584e-05
7.66641e-05
-0.000114729
-8.07775e-05
0.000143772
-0.00108226
0.000194396
-0.000606904
0.00112812
0.000451034
0.000450967
0.00112817
0.000525384
-9.10189e-05
0.000945638
-0.0019105
-0.000130609
4.78463e-05
0.00136333
0.000121303
-0.000912371
0.000494687
0.00126878
0.000908682
0.00110271
0.000650655
-0.000145405
-0.000157855
-0.000147987
-4.91199e-05
0.000896364
-0.000148061
0.000525355
0.000945722
-9.10748e-05
-0.000370892
-0.000130451
0.00136337
4.78011e-05
-0.00020324
2.57929e-06
-0.00176836
0.00112078
5.92364e-06
-0.00111338
-0.00010448
4.81499e-06
-0.000157723
-0.000120243
0.000338015
-0.00037095
-0.000265269
-1.19337e-05
9.89421e-05
4.86812e-06
1.63871e-06
5.83434e-06
-1.19679e-05
0.000338057
-0.000877874
-0.000265036
-0.00014633
-5.35721e-06
8.96943e-06
1.604e-05
1.81675e-05
2.36594e-05
5.77066e-05
-1.60416e-06
-0.00100516
-1.60287e-06
0.000146315
-0.000770325
0.0227891
0.000122474
0.0193907
-6.35766e-05
0.0192822
-6.13005e-05
0.0168256
-0.000193885
-0.0150654
0.0131529
5.01403e-05
0.00906308
0.0090576
0.000328326
-0.0102433
0.0122649
0.0123703
0.000230406
-0.0134887
-0.000128256
-0.0150436
0.0173004
-0.0198624
0.0210468
-0.000363685
-0.0190721
-0.000308571
0.016059
0.0162755
-0.000379325
-0.0182958
0.0219708
-0.0250269
-0.000110592
-0.0211765
0.0242337
-0.0228033
0.0141637
0.000255139
-0.0123265
-0.000460584
0.0115336
-0.000780488
-0.0147348
-0.0105992
0.00463467
0.00456997
-0.0352267
0.012601
0.0120863
0.00187174
-0.000269517
-0.0115891
-0.000536283
0.0117137
0.0117153
-0.000711389
-0.0128086
0.000230601
0.0123688
0.0122664
-0.0134886
-0.000129271
-0.0102433
0.000328764
0.00905709
0.00906377
4.9755e-05
-0.00760567
0.000285646
0.00645228
0.00650899
0.000107156
0.000257966
0.000167569
8.83884e-05
-4.1195e-05
1.00046e-06
3.393e-05
0.000126125
0.000127222
5.03802e-05
0.00429378
-0.00461841
0.0037403
-0.00379321
-2.10479e-05
0.00465677
-4.4149e-06
-3.69022e-06
1.68051e-06
-9.3117e-07
-6.98067e-06
-2.58941e-05
-0.0015994
-0.000829468
0.000365435
0.000727358
0.000371379
3.99109e-05
8.53759e-06
9.6157e-07
2.41006e-05
-4.87499e-05
-6.35283e-05
-8.84579e-05
-0.00011332
-0.00014382
-0.000185455
0.000264935
0.0013767
0.00216302
0.00131022
0.000653603
2.3196e-05
-0.000109143
-3.06216e-05
-0.00995831
-0.00722142
0.000365247
0.00656572
0.00656712
-0.000400534
-0.00543602
0.000337601
0.00467181
0.00467277
-0.000307799
-0.00545007
0.00021841
0.00448457
0.0045714
-0.00549211
0.000119168
-7.21662e-05
0.000329551
0.000831984
0.000525711
0.000140743
-0.000119086
-0.000119156
-0.00387976
0.000163449
0.00306849
0.00320589
-0.00388227
0.000116948
-0.000159277
-1.09642e-05
0.000294997
7.84302e-05
-0.000198964
-0.000348078
-0.000322572
-0.000584719
-0.000389791
-0.000933042
-0.00121873
-0.00108543
-0.00094329
-0.00112948
-0.00121234
-0.000934028
0.00123819
-0.00117011
0.000486973
0.000134024
-9.81211e-05
-0.00016469
-4.46134e-05
3.12988e-06
1.71287e-05
-0.00346872
-6.56508e-05
7.42601e-06
1.69922e-05
-0.00505759
-8.63907e-05
-0.000109145
0.00014335
-0.000109076
-0.000134507
-0.000156443
5.91361e-05
0.000121718
-0.000397116
0.0172155
4.07726e-05
0.0154846
-3.27729e-05
0.0146921
-3.17798e-05
0.0127431
-0.000114086
-0.0110687
0.00967051
0.000107505
0.00650848
0.00645292
0.000285305
-0.00760496
-0.00748557
-0.000400787
-0.00543466
-0.000109491
0.00136372
0.00225623
0.0042214
0.000133103
0.00013319
0.00187149
-0.000269392
-0.0154754
-0.0115872
-0.000272944
5.89852e-05
-1.23824e-05
-0.000206567
-0.000128431
-0.000138725
-1.85921e-05
-0.000143917
-0.000246062
-0.000156459
-1.52235e-05
-5.10484e-06
-7.08154e-05
-3.32465e-05
-1.4162e-05
-5.8493e-06
3.06912e-07
1.25527e-05
0.000120502
0.00018573
-6.98243e-06
4.02404e-06
1.94541e-05
3.40532e-05
-6.62148e-05
0.00960885
-8.40895e-05
0.00858789
1.08365e-05
-0.00925376
-1.6109e-05
0.00931587
-7.24807e-05
-0.00791045
0.0069091
-0.0082801
-0.000113701
7.49776e-05
7.13102e-05
-0.000348694
-0.00050828
-0.000724293
-0.000262688
-0.000286696
-0.000233622
-0.000197841
-0.000227729
-0.000135305
-0.000197467
-0.000180397
-1.97646e-05
0.000930864
0.000728151
0.000371835
-0.00303077
-6.56144e-05
0.00305226
-2.5825e-05
0.00141026
2.40906e-05
1.93341e-05
1.65003e-06
-3.70089e-06
-1.2051e-05
-2.99988e-05
-6.52564e-05
-1.84592e-05
-5.18761e-06
-4.33376e-06
-0.010149
0.0108292
-0.012683
0.0117301
-0.011094
-6.15751e-05
0.0130131
-0.00017912
-0.0147967
-0.000138458
-0.00051876
-0.0191061
-0.00353133
-0.0100011
0.00866313
-0.00860489
-0.0200069
0.00460195
-0.0097252
-0.00527121
-0.00909897
-0.00704707
0.000614258
-6.68572e-05
-0.000278956
-0.000604312
-0.000541673
0.00641502
0.0046214
-0.00025393
-0.000146819
-0.00128087
-0.00246907
-0.000466613
-0.0010923
-0.00029876
-0.000629118
6.798e-06
7.59319e-05
5.73169e-05
-0.0137902
-0.0168137
1.80834e-05
-0.0180929
-6.69836e-05
-6.21153e-06
7.70713e-06
8.17698e-06
-0.000207811
-0.000367512
-0.000141143
-8.56329e-05
-0.00572641
0.00486803
-8.64451e-05
0.00429368
1.72792e-05
-0.00346835
0.00342591
0.000105636
-0.00404387
5.80955e-05
0.000127207
0.000101206
-0.00019216
6.52769e-05
-0.00505735