/*--------------------------------*- C++ -*----------------------------------*\
| =========                 |                                                 |
| \\      /  F ield         | OpenFOAM: The Open Source CFD Toolbox           |
|  \\    /   O peration     | Version:  2306                                  |
|   \\  /    A nd           | Website:  www.openfoam.com                      |
|    \\/     M anipulation  |                                                 |
\*---------------------------------------------------------------------------*/
FoamFile
{
    version     2.0;
    format      ascii;
    arch        "LSB;label=32;scalar=64";
    class       volScalarField;
    location    "2.4";
    object      gradTy;
}
// * * * * * * * * * * * * * * * * * * * * * * * * * * * * * * * * * * * * * //

dimensions      [0 -1 0 1 0 0 0];

internalField   nonuniform List<scalar> 
2658
(
0.00846698
0.00488613
0.00152178
-0.000205765
-0.0179923
0.0221297
-0.0189891
0.0159807
-0.000306963
-0.015669
0.00487202
-0.0351476
0.0212384
0.0216082
0.0174646
0.0179508
0.0197018
0.0176709
0.0178787
0.0213416
0.0205575
0.0178831
0.00589348
-0.00410073
0.00666619
0.019688
-0.0043182
0.00116558
0.0160602
-8.08931e-07
-0.0160604
0.00431829
-0.0196891
-0.00589335
-0.00666595
0.00410124
-0.0012774
0.0016742
-0.0178886
-0.0205587
-0.0213432
-0.0178795
-0.0176696
0.00888735
-0.00144622
-0.000737738
-0.00487228
0.00925052
-0.017954
-0.0174648
-0.0216066
-0.0212385
-0.018798
0.00391161
-0.00700502
-0.00664263
0.000454227
-0.0117045
-1.05412e-07
-0.000200507
-0.000453922
0.00664236
0.00700544
-0.00391215
0.00469932
-0.0102759
-0.0146153
-0.000643442
-0.0245069
0.024507
2.36011e-07
0.0209688
-0.00021656
0.0174574
-6.64758e-05
-0.0132191
-0.013111
0.000309727
0.0128324
0.00843634
-0.00877142
-0.000563832
0.0111845
0.0167942
-0.000376754
-0.000221283
-4.25115e-08
9.34684e-05
0.000122525
0.00012935
0.00011038
-0.000394779
0.000208053
0.00103327
-0.000456293
-0.00106337
-0.000193735
-0.00114399
-0.000208972
-0.000436134
-0.00125428
-0.000337502
-0.00108199
-0.000587052
-0.000487611
0.00112561
-0.000405159
-4.60617e-06
0.000147383
-0.00117998
0.000391263
-0.000535001
-2.22575e-08
0.000534999
-0.000391337
0.00117995
0.000487645
-0.00112563
0.00108197
0.000587061
0.000337426
0.00125427
0.000436122
0.000208977
-0.00088668
-0.000858934
-0.00103332
0.00106345
0.000193785
0.000456365
0.0012298
0.000316685
0.000588055
0.000532811
0.00109865
-0.000494777
3.2526e-05
5.14404e-05
-0.00112715
0.00112739
-3.26415e-05
0.000494807
-0.000296667
-0.000309076
-2.82012e-06
0.000308057
5.3949e-07
6.06e-07
-0.000612814
0.000604016
1.32019e-06
4.81114e-05
0.000321536
-0.000360503
0.00144631
0.000336452
0.00135546
0.0016038
0.00169745
0.00134848
0.00135741
0.00155308
0.00135635
0.00137268
0.0017361
0.00161968
0.00141716
0.000458563
-0.000103872
0.000271697
-0.00194889
0.00255262
-0.00279226
0.00352543
-0.00409486
0.00492488
-0.00588824
0.00675386
-0.00821855
0.00898203
-0.0111379
0.0115476
-0.0147557
0.0143738
0.0140442
0.0117685
0.0111738
0.0156697
0.0179918
0.000205583
-0.0221303
0.0146154
0.0102751
-0.00469944
0.0351472
-0.00427663
0.00037647
0.000221108
-3.66399e-08
-9.36759e-05
-0.000122712
-0.000129321
-0.000110367
0.000394778
-0.000207963
1.54214e-05
-0.000468012
0.000166879
-0.000603134
0.000603125
0.000468055
-1.54651e-05
-0.000166921
-0.000182521
0.000859022
0.000886663
-0.00107539
0.00100899
0.000242521
-3.1643e-05
-0.000163703
0.000157407
-0.000143602
-0.000151709
-7.41429e-09
0.000151687
-0.000242729
0.000405145
-0.000767363
4.65585e-06
-0.000850802
0.000850867
0.000767387
-2.97179e-09
-0.000533459
-0.000584622
0.000584662
-0.000159181
0.000533468
-7.92139e-05
-1.32516e-08
-0.000427068
-0.000190778
0.000555524
-0.000145198
4.59752e-08
3.24167e-08
-1.54823e-08
-0.000821782
0.000585198
0.00162404
-0.000395385
0.00129134
-0.00173459
0.00205258
-0.00222303
0.00222292
0.000288439
0.0025914
0.00018495
-0.00321703
0.00373173
0.000101161
-0.00453799
0.00536246
1.85545e-05
-0.00634354
0.00752026
-0.000110807
-0.00863921
0.0102298
-0.000393299
-0.0113851
0.013504
-0.00109009
-0.0144865
0.017277
-0.00298792
-0.0188653
-0.0087275
-0.0194433
0.0194436
-0.00116494
-0.0053136
0.0101019
0.00901317
-8.50523e-08
-0.00639825
0.00639833
0.00667857
-4.84416e-08
-0.00804892
0.00804893
0.00325172
-3.00483e-08
-0.0209595
0.0209593
-0.0130506
1.37868e-07
0.0130503
-0.0101814
0.00646375
0.014896
0.0103563
0.0135903
-0.0201374
0.014323
0.00190109
0.00121194
0.000198343
-0.0032518
-0.00118245
-0.00334835
-0.0115351
0.00623795
0.0178654
0.00758677
0.00853143
-0.00437642
1.10612e-07
0.00437667
0.00334837
-0.0143231
0.020137
-0.0148974
-0.00646465
0.0101811
-0.00190141
-0.00121201
-0.00853054
-0.00758735
-0.0178651
-0.00623826
0.011535
-0.0118135
-0.00427063
-0.0165427
-0.00376054
0.0108742
0.00259466
-0.00253207
0.0118215
-0.00235371
-0.00284394
8.80239e-05
-0.000105535
-0.000248828
-0.000275217
-0.000253379
-0.000219877
-0.000179142
-0.000209312
-0.0018409
-0.00156842
-0.0014139
-0.00215082
0.00288346
-0.00316292
0.00402977
-0.00464559
0.00563547
-0.00670076
0.00772034
-0.0094103
0.0102459
-0.0128325
0.0131119
-0.0167946
0.000306399
-0.0159802
0.0189904
-0.0209692
0.0194854
-7.65466e-08
-0.0194852
0.0166824
-0.0149902
0.0121569
-0.0100367
0.0132669
8.10345e-05
0.00895679
0.000389743
-0.0102448
-0.000432648
-0.00678031
-0.00775781
0.0003866
0.00707574
0.00773187
-0.00867353
-0.000481081
0.00961729
0.000244258
-0.00984878
0.012432
-0.000510653
-0.0111737
-8.01712e-05
0.000737803
-0.0092507
0.0118132
-0.0118219
0.00253186
0.000869184
-0.00010062
-9.4694e-08
0.000200796
-2.49216e-06
-0.000158277
-0.0002038
-0.000198997
-0.000178688
-0.00014574
0.000143593
-0.00015741
0.000163694
0.000159071
3.16919e-05
-0.00100903
0.00107542
-0.000730825
0.000525458
0.000300132
0.000246395
0.000654087
0.000463111
-0.000130708
-0.00174555
0.0029315
1.56908e-06
-0.00336356
0.00272181
-0.00226613
-0.000203846
8.35575e-05
0.000867155
0.00088093
0.000874274
0.000548035
0.000614812
2.36093e-05
0.000233703
0.000278051
8.80043e-05
-0.000215168
5.45082e-06
-8.47714e-05
-0.000171593
-0.000163377
0.000103227
0.000137133
0.000157202
0.00249249
0.00219228
-0.00233341
-0.00203842
0.000139123
0.00198129
-0.000229408
0.000130031
-0.000192797
-0.000475843
-0.000482623
-0.000804012
-0.000357372
-0.000278695
-0.000418547
-0.000658264
-5.22265e-06
6.36172e-05
0.000141897
0.00473062
0.00430286
-0.00503201
-0.00435478
0.00027523
0.00375573
-0.00300421
0.000206653
0.00271895
-0.000250319
0.00308399
-0.00346973
0.000217956
0.00340703
-0.00265904
0.000149379
2.65591e-05
-8.74392e-05
-0.00259102
3.15317e-05
0.00233625
-0.000326489
-0.00196751
-0.000411902
-0.000169118
-3.19128e-05
5.98466e-05
0.000157676
0.000312485
0.000302247
-0.000749027
0.000290314
0.000544084
0.000339285
4.37795e-05
0.000166525
0.000154914
0.000149622
-0.000217607
-0.000490918
-0.000826112
-0.000819916
-0.00132913
-0.0012653
-0.00206194
-0.00127045
-0.00062044
-0.00122799
-0.00296266
-0.000458607
-0.000148469
3.38701e-05
0.00867367
0.00775876
-0.0096169
-0.00843499
0.000432731
0.00678064
-0.00614492
0.000347299
0.00511163
-0.000358903
0.00587229
-0.00707529
0.000377264
0.00648481
-0.00552645
0.000293142
5.07728e-05
3.86245e-05
-0.000119788
-0.0037313
1.81251e-05
0.00321706
-0.000184986
-5.61738e-05
-0.00320923
0.00400427
-0.00462068
0.00462082
9.89818e-05
-0.00565691
5.94059e-05
0.00654213
3.8005e-05
-0.00782355
7.26742e-05
0.00899912
-9.21088e-05
-0.0104776
6.19981e-05
0.0119792
-0.000466574
-0.0134921
-6.35191e-05
0.0154146
-0.00175712
-0.0162428
-0.0013393
0.0183074
-3.41895e-07
-0.0183074
0.0087261
0.0188664
0.00298668
-0.0172762
-0.000191707
0.0144861
0.00108934
-0.0135033
-6.04987e-05
0.0113866
0.000392505
-0.0102286
-2.84708e-05
0.0086403
0.000109772
-0.00751993
-7.94555e-06
0.006344
-1.90276e-05
-0.00536209
6.71625e-06
0.00453831
-0.000101071
-4.98626e-05
-0.000188938
-0.000134847
-4.96733e-05
0.000437433
-2.05979e-07
-1.00486e-08
-3.70717e-07
3.00316e-08
3.05193e-07
5.19175e-07
1.00695e-06
3.33355e-06
1.11442e-06
-3.0266e-07
-1.0028e-06
0.00540809
-0.00540887
-0.00754316
-0.0072243
-0.00214793
-0.00388288
-0.0121274
0.0361452
-0.00334864
0.000216246
-0.000141357
-0.000222176
0.00133938
0.0162438
0.00175616
-0.015414
-1.16192e-07
-1.18687e-07
-1.37801e-07
0.000466401
-0.011979
0.0134924
6.34946e-05
-0.000164884
-0.000191603
-6.22395e-05
0.0104778
9.18736e-05
-0.00899927
1.45186e-07
-1.73345e-08
-6.22697e-08
-9.21613e-08
-9.94468e-05
0.00565708
-0.00654206
0.00782408
-7.243e-05
-0.000181859
-0.000153473
-8.9423e-08
-5.48992e-08
1.89192e-08
-1.17756e-08
-0.000288549
0.0028438
-3.00483e-08
-0.00284386
5.62651e-05
0.00320936
0.000158541
-0.00400436
4.98129e-05
0.000119692
3.61881e-08
-0.000158877
8.97787e-08
8.74013e-05
3.19048e-05
0.00196758
0.000326282
-0.00233621
0.000169151
-0.00205255
0.00082186
0.00173459
7.01828e-08
-0.00129128
0.000395467
-0.00162418
-0.000458581
-0.000585156
-6.72114e-05
-0.000371092
-0.000191128
0.000145184
0.00042703
-0.000555591
0.000190841
-0.000576075
0.000427548
-2.40911e-08
-0.000427548
-0.000212293
0.00114395
0.000576089
7.92695e-05
0.000191178
-0.000147354
0.000371105
6.71949e-05
8.13816e-05
-0.000409815
-0.000175738
0.000574621
0.000535597
-0.000123926
0.000138555
0.000771722
-0.00111064
0.00103932
-0.000150141
1.15802e-09
5.78349e-08
3.97923e-08
-1.12706e-08
4.17672e-10
-2.64738e-08
-5.42535e-09
4.77659e-08
-3.78664e-08
-3.38919e-08
1.54196e-07
1.25795e-07
-6.39995e-08
-1.14079e-07
1.10712e-08
-4.43568e-07
-0.0101024
0.00531387
-0.00452945
0.00753765
-0.00753784
0.00452922
-0.0150404
0.00156992
-0.00603427
0.0139273
0.00351753
-0.000328241
0.0130573
-0.0117646
-0.0067121
-0.0176731
-0.00567577
-0.00862932
-0.0127999
-0.00723649
0.000686229
0.00625949
0.00192241
-1.65846e-06
2.84649e-07
-0.0019216
0.0150401
0.00603412
-0.00157031
0.00472737
-0.00351776
-0.0130579
0.000327905
0.00153069
-0.00259482
-0.0108744
0.00375971
0.0165417
0.00427056
0.00757341
-0.0061244
-0.00626099
9.25659e-07
-0.00231789
-0.00472748
0.000348173
-0.000467813
-0.00735054
0.00612431
0.00121164
-0.00757341
-0.000207583
-0.00019852
0.00118224
-0.000869163
0.000100481
8.01247e-05
-0.0020093
-0.00423343
-0.00222178
-0.000126603
0.0113119
0.00985057
-0.0124322
-0.0111834
0.000564072
0.00877149
-0.00024433
-0.000206436
-0.00220962
-0.00132736
-1.04993e-05
8.7538e-05
0.00012269
0.00013889
0.000152287
-0.00385673
-0.000265097
0.000106228
0.00383146
-8.18375e-05
-0.00486358
0.0058625
-0.000108216
-0.00695949
0.00539771
-0.00447797
-0.000269454
-0.00641268
-0.000116241
-0.00974607
0.00745935
-0.000335244
-0.00895628
-8.12905e-05
-0.0132667
0.0100361
-0.000390056
-0.0121566
6.71914e-05
-0.0174583
0.0132181
-0.00031073
-0.000932344
-0.00412638
-0.0124738
-0.012443
-0.0197073
-0.0019675
0.0331938
-0.00312388
-0.00322749
-0.00152171
-0.000687032
-0.0004195
-0.000270721
-0.000169343
-8.06498e-05
-1.97422e-05
6.74159e-05
2.11911e-05
0.00541255
2.1105e-07
-0.00541288
0.00652016
1.13499e-07
-0.00775871
0.00775866
-0.00652009
-3.59784e-08
-3.99725e-08
2.60818e-08
6.01769e-05
0.000146681
-3.53586e-05
0.00150559
5.61615e-07
-0.0015059
0.00311637
2.30595e-07
-0.00370931
0.00370897
-0.00311603
3.64371e-05
0.000421161
-0.000547916
0.000547939
-0.000309067
-0.000153387
-0.000421307
0.00174573
0.000131012
-0.000463407
0.00226681
-1.39567e-06
-0.00272225
0.00336365
-0.00293121
3.51507e-05
-6.0153e-05
-5.98522e-05
0.000179077
-3.139e-05
0.00194895
0.000209489
-0.00249238
-0.000149285
0.00233347
0.000250287
-0.00271873
-0.00020667
0.00300539
0.00464537
0.000269674
-0.00539796
0.00695882
0.000108515
0.00447881
-0.00383183
0.00486359
8.18384e-05
0.00309609
0.000225085
-0.00402923
0.00316291
0.00203905
-0.00198152
-0.00013904
-0.00288305
0.000203635
0.00215072
0.0014142
0.000229256
-0.00219214
0.00156849
0.00184109
-0.000525449
-0.000157591
-0.000299953
0.00301605
-0.000246451
-0.000146686
-0.000653892
0.00316577
-0.0013485
-0.00135763
0.00074911
-0.000302179
-0.000312518
-0.000277887
-0.000614862
-0.0004374
4.95855e-05
0.000135134
-2.35182e-05
8.51351e-05
0.000188771
0.000251696
0.000172074
0.000279263
0.000316716
-0.000317343
-0.000251714
-5.93445e-05
-0.000343436
0.00034253
0.000418925
0.000620925
0.000269698
-0.000270813
-0.000334328
0.000335099
0.00123047
0.00754466
0.00722644
0.00215163
-0.0143733
-0.000531996
-0.0140437
-0.000216312
0.00144611
-0.0331939
0.00235354
0.00284362
-8.84744e-05
0.000105189
0.000248296
0.000274927
0.000253156
0.000219775
-1.80095e-05
0.00279255
0.000230733
-0.00340688
-0.000218141
0.00346971
0.000299445
-0.00375549
-0.000274482
0.00435616
0.00670101
0.000334841
-0.00745999
0.00974581
0.000116346
0.00641332
-0.00824999
-3.97761e-05
0.00918732
-1.38422e-08
-0.0108623
0.0108622
-0.00918732
3.96994e-05
0.00825066
8.96523e-05
1.63214e-07
3.16037e-07
7.90538e-08
8.75859e-07
-3.67443e-05
-0.000340417
-0.00144804
0.00036424
0.000220852
-0.001099
-0.0005332
-0.000588193
-0.00103956
-0.000316665
-0.00122975
-0.00169695
-0.00160362
0.000149547
-0.00135601
-0.000336668
-0.000543906
-0.000866888
-0.000880968
-0.0008743
-0.00173609
-0.00137274
0.00073079
-0.00135638
-0.00155377
0.00321386
-0.000271698
0.000411928
0.000103776
-0.00161974
-0.00141739
-0.000547623
-8.77762e-05
-0.000234201
-0.000136811
-0.00255234
-0.000156995
0.00265959
0.000215233
-2.09151e-06
-0.000102436
-0.00352509
0.00409547
0.000265389
-0.00473024
-0.000292978
0.00552732
0.00503201
0.000358813
-0.00511202
-0.000347354
0.00614628
0.00940981
-0.00771938
-8.72712e-05
-0.000114497
-0.00648388
-0.000376587
-0.00587144
0.00020364
0.000198758
0.000178528
0.0001457
-2.65648e-05
-3.86089e-05
-5.07409e-05
0.000153412
0.000181699
-6.5963e-05
6.57375e-05
8.79892e-05
0.000480803
-0.0105538
-0.000141555
0.000123345
0.000630253
-0.0140924
0.000531624
0.000179556
0.000117306
9.12841e-05
7.20249e-05
5.45031e-05
3.5153e-05
1.73736e-06
0.0041026
-0.00454527
0.00454559
-0.00410213
-1.91727e-06
-3.50768e-05
-5.45188e-05
-2.13576e-05
-0.00586207
-6.75422e-05
-4.38983e-05
-4.32547e-05
8.09331e-05
0.000169547
-8.96121e-05
-4.87459e-05
-0.000105821
-0.000138783
-0.00015201
0.0038572
0.000483231
0.000168694
-6.22387e-05
-0.00492426
0.00588899
0.000302856
-0.00675332
0.00821949
0.000303041
-0.00898088
0.0111381
0.000141248
-0.0113124
-0.000630851
0.014093
0.0147563
0.000191669
-0.0115466
6.0919e-05
0.000459438
0.000150774
7.00323e-06
0.000363422
0.000804817
0.00126642
0.000667771
0.00206206
0.00128419
0.00388359
0.00295738
0.0121272
-0.0361449
0.00127685
-0.00167255
0.0127991
0.00567513
0.0176732
0.00671212
0.0117644
-0.00888716
0.00334918
0.00196714
-0.0117679
-0.000201096
2.24511e-06
0.000158042
-1.3587e-07
-1.39316e-07
-0.000123467
0.000164782
0.000191368
-8.79651e-05
-0.000117564
-3.0655e-08
-4.53997e-08
-9.13068e-05
-7.21574e-05
-6.15718e-05
-0.0113039
0.0125974
-8.19423e-09
-0.0147845
0.0147843
-0.0125976
6.16655e-05
0.0113048
0.00010856
-6.09678e-05
-0.000364741
4.91723e-05
-0.000172059
-0.000322402
-0.000695515
0.000124005
0.0149905
-0.016682
0.000103543
-1.12951e-07
-5.29051e-08
-3.75814e-08
-8.86281e-08
-0.00667892
0.00125057
0.000141188
0.000221833
-0.000347998
-0.0090141
0.002318
0.000467302
0.00735012
0.00723576
-0.0139267
0.00862863
-0.000686478
-0.00121242
-2.92376e-07
0.00427642
0.0117045
-8.45448e-05
9.18037e-07
0.000158396
0.000216586
8.4828e-05
-0.0048864
-0.00846768
-0.00848619
7.99806e-08
0.000200477
9.15136e-07
0.000643256
8.83129e-07
2.20596e-07
1.05374e-08
-0.000108638
0.000271299
0.000419697
-0.000124104
-0.000103975
0.000322586
6.12351e-05
0.000826848
0.000491248
0.000218099
-8.35396e-05
-0.000129857
0.000193013
0.000476108
-0.000141388
-0.0043024
0.000820174
0.00132951
-3.3177e-05
0.0105552
0.00012785
0.000206929
1.13489e-05
0.00132841
0.00221169
0.00222291
0.00423514
0.012443
0.0020092
0.00412639
0.0124732
0.003123
0.000932428
-0.000159002
0.000686408
0.00141821
0.00322802
0.000698263
-0.000122599
-0.00563427
-0.000149532
-0.000154874
-0.00029059
-0.000166299
2.01059e-05
0.000174101
0.00036493
-0.000179619
-0.00141587
2.88409e-05
8.11038e-06
-6.5239e-06
-0.00308362
4.38361e-05
-0.00309545
-0.000225181
0.000175743
0.000409848
-8.13764e-05
-0.000138588
-1.54596e-07
0.00012394
-0.000535644
-0.00057461
0.000212335
0.00111066
-0.000771763
-5.18615e-05
-0.000322181
0.00030843
0.000153443
0.000297469
-0.000220048
0.000115088
-0.00772977
-0.000303284
0.00051077
-0.00153095
-0.00125081
0.000207706
0.000182499
-2.65874e-08
-3.86411e-05
2.19308e-08
1.39301e-07
1.79956e-07
-0.000303018
-0.000386222
-0.000230665
-0.000299437
-0.00321371
-0.00301591
-0.00316557
-0.0135899
-0.0103565
0.00178436
-1.81086e-07
-0.00178452
0.0187984
0.0084852
-0.000544438
-0.000339187
-4.36537e-05
-1.65172e-06
0.00226597
-0.00293137
0.0033635
-0.00272202
0.000203855
0.00215051
-0.000654185
0.00316549
-0.00160382
-0.00169762
-0.0013486
-0.00135749
-0.00155312
-0.00135639
-0.00137275
-0.00173602
-0.00161978
-0.00141728
-0.000458732
0.000411893
-0.000585218
-0.00162412
0.000395321
-6.71349e-05
-0.00129133
6.71964e-08
0.0012913
-0.000395382
0.00162418
0.00045872
0.00058521
-0.000411917
0.000271753
-0.000103711
0.00141768
0.00161987
0.00173606
0.00137279
0.00135647
-0.000730727
0.000300106
0.000246456
0.000654016
-0.000748955
0.00135772
0.00134859
0.0016973
0.0016038
0.00135608
-0.000149424
0.00033691
0.000153389
0.000421448
0.00150604
-5.56634e-07
0.000547937
-0.0004212
-0.000153495
-0.000336508
0.000149917
-0.000463269
0.000130692
0.00174548
3.53189e-05
0.00311597
-0.00311619
-3.15509e-07
-0.00370904
-1.73664e-06
-0.00410215
8.17751e-05
0.00309547
0.00316257
0.00022523
-0.00402955
-0.00271909
0.00203854
-0.000139285
-0.00198148
-0.00288347
0.000110397
0.000129366
0.000122608
9.3442e-05
2.78108e-07
-0.000220937
-0.000376304
0.00427678
-0.00334808
-0.011535
0.0062384
0.0118136
0.00427086
0.016542
0.00376019
0.0067125
0.0176739
0.00567577
0.0127994
0.00862894
0.00603371
-0.0139275
0.00472726
-0.000348271
-0.00157012
0.0150403
-0.00452861
0.00753786
5.79414e-08
-0.00753834
0.00452888
-0.0150398
-0.00603367
0.0139275
-0.0127989
-0.00862872
-0.00567558
-0.0176735
-0.00671192
-0.00376005
0.0108747
0.0118213
0.0115349
-0.0118133
-0.00427059
-0.00623856
-0.0178657
-0.0075878
-0.0103566
-0.0148975
-0.00646427
0.0101812
-0.0130508
-0.00190132
0.0209596
-0.0209594
0.0130508
-0.0101814
0.00646357
0.0148964
0.0103567
0.0135907
0.00758743
0.0178649
0.0216076
0.0212385
-0.00391213
0.0187984
0.00700539
0.00848516
0.00664235
-0.000200059
1.24558e-06
0.000200474
-1.8051e-07
0.0117048
-0.0117047
0.000453964
-0.00664256
-0.0084854
-0.00700594
-0.0187986
-0.021239
-0.0216069
-0.0174646
-0.0179506
-0.0197015
-0.0176707
-0.0178787
-0.0213427
-0.0205571
-0.0178851
-0.00589189
0.00167376
-0.00127706
0.0143736
-0.0147573
0.0115463
-0.011138
0.0089819
-0.00821919
0.00675333
-0.0058889
0.00492485
-0.00409499
0.00352538
-0.00279251
0.00255237
-0.00194895
-0.00184091
-0.00156838
-0.001414
-0.00215062
-0.00226649
1.39102e-06
0.00293137
-0.00174564
-0.000130859
0.000463474
-0.00316555
0.000394822
-0.000110361
-0.000129317
-0.000122516
-9.34322e-05
5.76224e-08
0.00022098
0.000376174
-0.00427679
0.00334795
0.00118227
0.00325171
-0.000869306
0.00804895
-0.00804886
-0.00325164
-0.00118227
0.00086936
0.00253205
-0.0118217
-0.0108743
0.0117645
-0.0130576
-0.00351766
0.000328165
0.00153079
-0.00259459
0.0023538
0.0028439
3.47714e-08
-0.00284373
0.00351759
-0.00472721
0.0090134
0.000347807
0.0101018
-0.0101022
-0.00901373
-1.16497e-07
0.00639839
0.00667857
-0.00667882
0.00125059
-0.0063983
0.000467325
3.47546e-07
0.00625951
0.00068619
-0.0072357
0.00192236
-3.55347e-07
-5.06278e-07
1.64815e-08
0.00872678
-0.00666632
-0.0196881
0.00431786
-0.0160611
0.0194428
-0.0183069
0.0162428
-0.0162433
-0.00175668
-0.0144858
-0.00108932
0.013503
-0.0113864
-0.000391963
0.0102286
-0.00864033
-0.000109259
0.0075195
-0.00634409
1.94384e-05
0.00536199
-0.00453834
0.000101283
0.00373132
-0.00321708
0.000185087
0.00259118
-0.00233644
0.000326342
0.00196743
0.000821751
0.00173436
-0.00173448
6.70628e-05
0.000371039
-0.000850769
-0.000767309
1.75707e-08
0.000533447
-0.000533461
-0.000584593
1.22288e-08
0.000603103
-0.000603116
-0.000468032
-5.24946e-08
0.00112712
-0.00112735
3.26591e-05
-4.88355e-07
-0.000308101
0.000309124
-0.000220869
0.00109903
0.000533225
0.000588259
0.000316835
0.0012299
0.000456356
-0.00103325
-0.000208042
0.000771798
-0.00111064
0.00103968
0.000535605
0.000574698
0.000193906
0.00114407
0.000209063
-0.000886602
-0.000157406
0.000182519
-0.000858975
0.00106353
0.000143639
0.000151755
-0.000179078
-0.000219841
-0.000253319
-0.000275029
-0.000248499
-0.000105329
8.83582e-05
0.000532248
0.0140426
0.0117692
0.0111732
0.0156703
-0.0167947
0.0131124
-0.0128329
0.0102461
-0.0094104
0.00772017
-0.00670164
0.00563497
-0.00464573
0.00402948
-0.00316301
0.0028833
-0.000203706
0.00272218
-0.00336366
0.00370937
-0.00454542
-7.80743e-08
0.00454512
-0.00541296
0.00486349
-0.00383194
0.0044784
-0.00586218
0.000108291
-0.00539826
0.000269868
0.00464505
-0.000206638
0.00300468
0.00346913
0.000299623
-0.00430277
-0.00473069
0.00385653
-0.000218196
-0.00308394
0.000250378
0.00233306
-0.00219237
0.000229462
0.00141385
-0.000146858
-0.000246488
0.000748835
-0.00106357
-0.000456332
-0.00122993
-0.00031674
-0.000588113
-0.000532955
-0.0010987
0.000220003
-0.000297514
-3.25209e-05
0.000494811
-5.15157e-05
-0.000771784
-1.55419e-05
0.000207998
0.00111064
0.00103328
0.000858944
-0.000182567
-0.000166967
0.000468062
-2.64461e-08
-3.11969e-08
-3.15406e-08
3.21673e-08
5.62667e-08
5.8208e-08
1.02635e-07
3.33139e-08
1.66377e-08
-3.56267e-09
2.41019e-07
0.00437629
-0.000207746
-0.00757322
0.00121227
-0.0165414
-0.00735003
0.0130572
-0.000328192
-0.00153078
-0.00125079
-0.000141345
0.00021629
-0.00144649
-0.000737449
-0.00487244
-0.00469952
0.0102751
0.0146155
-0.0221301
0.000205496
0.01899
-0.0159797
0.0179918
0.000306389
-0.00412557
-0.0124745
-0.0124421
-0.0121258
-0.00722759
-0.00754365
-0.00123044
-0.0029595
-0.00215124
-0.00388424
-0.00206079
-0.00128349
-0.000620982
-0.000419395
-0.000666362
-0.000150388
-0.00045962
-0.000127091
-0.0140924
-0.0124325
0.00984984
0.00877062
0.000564218
-0.0111832
0.000509372
0.000200919
-0.00235373
0.00259477
-0.00253213
-0.000198507
0.00612446
-0.000467782
-0.00231818
0.00157027
-0.00531382
-0.00116541
-0.00540815
1.71287e-07
3.20154e-07
1.11546e-06
3.09651e-07
-3.24791e-07
-4.36559e-07
-3.8989e-07
-8.7585e-07
-3.92028e-07
2.41832e-08
1.27766e-07
-0.000437449
0.000437441
0.00061477
2.32378e-05
-8.50929e-05
-0.000172089
-0.000279404
-0.000363075
-6.84799e-06
-0.00126521
-0.000804134
-0.000482902
-0.000167791
6.24449e-05
0.000141919
-0.00552721
-0.00503255
0.00430243
0.00375524
0.000274805
-0.00435542
0.00511108
0.000347263
-0.00614536
0.00677994
0.00043266
-0.00843485
-0.000244836
-0.00961773
0.00775866
0.000480963
-0.0105538
0.0113113
0.000630318
0.000123354
-2.30669e-06
-0.000158149
-0.000386827
-0.00707588
0.0058718
0.000376674
-0.00773056
0.00867379
-0.000303595
3.40327e-05
-0.00222144
-0.00423393
-0.00196667
-0.0033485
0.00888758
-0.0117643
0.0361445
-0.00200955
0.00925072
-0.00312316
-0.00846718
-0.0048865
-0.0015222
-0.00322768
-0.000931568
-0.000206097
-0.00220984
-0.0013269
-0.00132828
-0.000819055
-0.000475591
-0.000192647
-0.000214963
2.65143e-06
0.000102451
0.000152307
-0.00385688
-0.00346972
0.00308395
0.00271866
0.00020652
-0.00300472
-0.000299667
-0.000198918
-0.000203602
-0.000359333
5.07971e-05
0.000292935
0.00473002
-0.000265472
-0.000153402
0.00634366
-8.57902e-06
-0.00752045
0.00011006
0.00863987
-2.85889e-05
-0.0102295
0.000393119
0.0113856
-6.07394e-05
-0.0135036
0.00108956
0.0144856
-0.00019211
-0.0172767
0.00298753
0.0188652
0.00410103
0.00133904
-0.00022209
0.000222083
-0.0188658
-0.00298682
0.0172763
-0.00133933
0.018307
-0.00872655
-0.0194432
-8.10198e-08
0.0160603
-0.00431785
0.0196892
0.00589222
0.00666624
0.0011653
0.00531418
0.00231798
-0.00192259
-0.00625994
0.00723631
-0.000686347
0.00735018
-0.00612419
-3.6992e-07
7.13103e-08
-1.75331e-08
-6.07101e-08
1.94127e-08
6.13385e-08
0.00175736
-0.0154137
0.0134915
-0.0119792
0.0104779
-0.0104786
-9.20376e-05
0.00899946
7.28546e-05
-0.00782346
3.83304e-05
0.00654192
5.97371e-05
-0.00565697
9.92989e-05
0.00462079
4.98799e-05
-0.00400422
0.000158748
0.0032093
5.61561e-05
-0.00284399
0.00028851
0.00222286
0.000168993
-0.00205275
-9.09437e-09
0.00205262
-0.000821683
-0.00196754
-0.000326368
0.00233624
3.14287e-05
-0.00259128
-0.000184996
0.00321707
1.79983e-05
-0.00373164
-0.000101153
0.00453803
6.49088e-06
-0.00536258
-1.90293e-05
-5.9765e-05
0.00565676
2.26552e-08
-0.00462113
0.00400427
-0.00320943
0.00284395
-1.18996e-07
-0.00222295
-0.000169113
-3.18739e-05
-8.74301e-05
-5.62972e-05
-0.000134787
-0.00018897
-0.000252223
-0.000317715
-0.000343373
-0.000270175
-0.000333988
0.000334117
0.00540803
0.00754392
0.00123002
0.000268946
0.0154136
-6.36024e-05
-0.0134921
-0.000466649
0.0119784
6.26194e-05
0.000191564
2.19192e-07
0.000467407
5.37851e-08
-7.69442e-08
9.26293e-05
-0.00899969
0.00782327
-0.00654226
-3.82871e-05
-5.61063e-08
-1.23888e-07
-4.0499e-08
-9.93372e-05
-4.22881e-08
-0.000158596
-7.26929e-08
2.13434e-08
-0.000288292
-3.13688e-08
3.52793e-08
0.000850781
-0.000371054
0.000391293
-0.000535011
0.000534962
-0.000391285
0.00117999
-0.00014733
0.000487659
-0.00112551
-0.000242702
3.17255e-05
-0.00100902
0.00107555
0.00043622
0.00125428
0.000337553
0.000587206
0.00108204
0.00055558
-0.000190756
-0.000427056
-0.000145202
1.16211e-07
-6.09714e-08
0.000145085
-0.00118006
-0.000487649
0.000147238
-0.000405227
0.000242545
0.00100898
-3.17285e-05
-0.000163734
0.000157417
0.000886634
-0.000209035
-0.00114399
-0.000193901
-0.000574685
0.000427557
0.000427065
-4.24276e-08
0.000191188
0.000405153
4.67964e-06
7.92657e-05
0.000576128
-0.000427532
-0.000212309
-2.44733e-08
-7.9256e-05
-0.000191209
0.000767373
-4.83955e-06
3.18366e-05
-3.55389e-08
2.47305e-08
2.37682e-08
1.00466e-07
-8.87883e-08
9.97572e-08
-0.00016463
6.39704e-05
0.000164843
-8.80168e-05
0.000191687
-0.0143739
-0.000531677
0.0140926
-0.000630623
-0.00985103
0.000243899
0.00843481
-0.000432404
-0.00678126
-0.0102459
0.000389135
0.00895604
-0.0113042
8.09299e-05
-0.0100374
0.0121558
-0.0149903
-6.65831e-05
-0.01322
0.000310384
0.0128318
-0.0131114
-0.00877296
0.0111833
-0.000563593
0.016794
-0.000305572
0.01598
-0.018989
-0.000205336
-0.0179927
-0.0156697
-0.0111742
-0.000509866
0.0124313
-0.0117686
-0.014044
0.00334861
-0.000216395
0.00144622
-0.0331941
0.000737899
-8.00106e-05
0.004872
-0.0351472
0.00469974
-0.0146155
-0.0102756
0.00488594
5.22188e-07
8.45421e-05
0.000643312
0.0245066
-2.381e-08
0.0209684
-0.0209681
0.000216351
-0.0174586
6.69831e-05
0.0149912
-0.0121558
0.0132182
-0.000310439
0.010036
-8.1229e-05
0.0113048
-0.0089557
-0.000389727
0.00745923
-0.000116709
0.0082506
-0.0064125
-0.000335545
-0.000826074
-0.000490706
-0.000217658
8.37185e-05
0.00012995
8.77937e-05
0.000234201
0.000136927
0.000157066
-0.00265931
-0.00233367
0.00219221
0.00198127
0.00013901
-0.0020388
-0.000250556
-0.000178624
-0.000145715
-0.000229258
5.98561e-05
0.000157731
0.000525583
-0.00321358
0.000874472
0.000547771
0.000277798
0.00031256
0.000881105
0.00155381
-0.00301585
0.000302323
0.000149757
0.000138931
0.00012295
8.77855e-05
-1.06464e-05
-0.000322669
-0.0014181
-0.000686104
-0.000419654
-0.000698649
-6.1569e-05
0.0001086
0.000123538
-0.0132675
0.0147845
3.86165e-08
0.0125975
-0.0125972
6.17288e-05
0.0108621
-5.78513e-08
0.00918777
-0.00918772
3.97402e-05
-0.0069592
-0.000108677
0.00586235
-0.00447844
0.00539748
-0.000269721
4.83513e-05
-0.000365261
-0.000271232
-0.000169551
-0.000174218
0.000106287
6.747e-05
-0.0048638
-8.19857e-05
0.00410228
-0.00309585
0.00383156
-0.000225062
0.000155046
-2.0101e-05
-8.07584e-05
4.36096e-05
0.000166338
0.000290734
0.000867129
0.000544148
0.000340624
0.00144809
-0.000364189
0.000612789
-1.22901e-06
-0.000603973
0.000360462
-0.00144644
-0.000308457
-0.000321446
-8.12212e-07
-9.64428e-08
4.38103e-05
1.74747e-06
3.50978e-05
2.66025e-05
0.000149188
0.00249239
-0.000209375
3.85986e-05
0.00021827
0.0034068
-0.000230794
-0.000119654
-4.9874e-05
0.000119567
0.000153394
0.000181876
0.000248797
0.000105627
6.07492e-05
-0.0115477
0.000141164
0.0105533
-0.000481298
-0.00775896
0.000387019
0.00614514
-0.000347132
-0.00511248
-0.00771934
0.000335946
0.0064128
-0.00825026
0.00011657
-0.00746005
0.00974569
-6.18573e-05
-0.0108619
-0.000108419
-2.38531e-07
-2.54185e-08
-7.51502e-07
0.000158965
-0.000158211
-8.41862e-05
-0.00064324
0.0221298
-0.0245067
-0.000100513
0.000141304
-0.000123258
-0.000200691
2.77371e-06
-3.15164e-08
8.80249e-05
-0.000191315
-6.23789e-05
-0.000181671
-7.26716e-05
6.58713e-05
7.57552e-08
8.54822e-09
-1.59544e-08
-4.98799e-08
-4.30312e-08
5.7641e-09
1.21072e-08
-0.000151745
0.000179139
0.000219829
0.000253376
0.000275057
8.02408e-06
-0.0067538
0.000303163
0.00552668
-0.000293103
0.00503143
0.000359039
0.00435523
-0.000274871
-0.00375596
-0.00563488
0.00670051
-0.000123131
-0.000142261
-6.3694e-05
0.000278756
0.000418552
0.000619906
0.000343476
0.000317699
0.000252437
0.000189193
0.000171789
8.49195e-05
0.000134914
4.94383e-05
-2.35832e-05
-0.000614953
-0.000548285
-0.000278148
0.00194884
0.000209438
0.00184078
-0.000157821
-0.000300141
0.00301587
-0.000143632
0.000145771
0.000178658
0.000198966
0.000203769
0.00015835
-8.79149e-05
-6.59179e-05
-0.000376989
-0.00648434
-0.00587196
0.00707505
0.00773016
0.00821864
0.000303383
-0.00898195
2.83412e-05
0.0111376
0.000148245
0.000458636
0.0147551
0.00214902
0.00127713
-0.0361457
0.0205583
0.0178881
-0.00167463
0.00722552
0.012126
0.0213434
0.0178793
-0.0088875
0.0176696
0.0197069
0.017954
-0.00925064
0.0174649
0.0124729
0.0124436
0.00196694
0.00388255
0.00296377
0.00206097
0.00127016
0.00126482
0.000657195
4.97847e-06
-0.000115759
-3.43611e-05
-0.0086746
0.0096156
0.000126638
-0.0113129
0.00423359
0.00222074
0.00132778
0.00081867
0.000803423
0.000357468
0.000482294
0.000265369
0.00409443
-0.00352545
0.000230754
0.0026592
-0.000149437
-0.00249255
-0.00255249
-3.14022e-05
0.0027921
-1.80539e-05
-0.000137115
-0.000103394
0.0001629
-0.000152608
-0.00340734