/*--------------------------------*- C++ -*----------------------------------*\
| =========                 |                                                 |
| \\      /  F ield         | OpenFOAM: The Open Source CFD Toolbox           |
|  \\    /   O peration     | Version:  2306                                  |
|   \\  /    A nd           | Website:  www.openfoam.com                      |
|    \\/     M anipulation  |                                                 |
\*---------------------------------------------------------------------------*/
FoamFile
{
    version     2.0;
    format      ascii;
    arch        "LSB;label=32;scalar=64";
    class       volVectorField;
    location    "1.3";
    object      flux;
}
// * * * * * * * * * * * * * * * * * * * * * * * * * * * * * * * * * * * * * //

dimensions      [0 1 -1 1 0 0 0];

internalField   nonuniform List<vector> 
5322
(
(-2.06788e-06 5.24812e-06 -6.96445e-06)
(1.35054e-07 6.70057e-07 -6.14576e-06)
(1.37354e-07 2.10675e-07 -4.82881e-06)
(-2.58357e-09 1.30775e-07 -5.21341e-06)
(-9.36713e-09 1.80396e-07 -3.59062e-06)
(-7.24837e-09 1.68406e-07 -2.32277e-06)
(-4.45318e-09 1.25713e-07 -1.40868e-06)
(-2.57871e-09 8.36941e-08 -8.01395e-07)
(-1.50558e-09 5.20138e-08 -4.29997e-07)
(-7.40423e-10 2.92944e-08 -2.23507e-07)
(-2.18054e-10 9.56066e-09 -1.23214e-07)
(1.19431e-09 -1.9002e-08 -9.25689e-08)
(1.50498e-09 -1.68004e-08 -6.07617e-08)
(-1.97328e-08 -1.58378e-08 -8.89846e-08)
(1.25246e-10 -1.50366e-08 -1.01097e-07)
(4.10264e-08 3.65432e-08 -9.21045e-08)
(-3.14732e-08 4.72481e-08 -1.0655e-07)
(1.53598e-09 -8.22763e-10 -9.02578e-08)
(-2.81284e-08 4.18406e-08 -1.47767e-07)
(3.50492e-08 -7.33273e-08 -1.98929e-07)
(-4.56771e-08 9.1071e-08 -2.91429e-07)
(7.79184e-08 -1.4041e-07 -3.96575e-07)
(-8.14731e-08 1.78645e-07 -5.71562e-07)
(1.53243e-07 -2.6886e-07 -7.67032e-07)
(-1.60247e-07 3.42038e-07 -1.06724e-06)
(2.67612e-07 -4.73615e-07 -1.37532e-06)
(-2.69703e-07 5.84952e-07 -1.84714e-06)
(4.5661e-07 -8.09444e-07 -2.33165e-06)
(-4.62574e-07 9.7666e-07 -3.01806e-06)
(7.04834e-07 -1.25559e-06 -3.66168e-06)
(-6.69975e-07 1.48316e-06 -4.574e-06)
(1.09705e-06 -1.85566e-06 -5.42326e-06)
(-8.04854e-07 2.19599e-06 -6.49273e-06)
(1.69475e-06 -2.2573e-06 -7.30323e-06)
(1.88698e-07 2.36902e-06 -7.9911e-06)
(2.6377e-06 -1.40369e-06 -7.1938e-06)
(1.87357e-06 2.84144e-06 -8.60511e-06)
(-7.41936e-07 3.43014e-06 -8.40788e-06)
(2.04369e-06 1.74153e-06 -8.65922e-06)
(-1.23296e-07 1.97751e-06 -6.42764e-06)
(-1.94104e-06 2.53568e-06 -8.0164e-06)
(1.944e-06 2.13393e-06 -8.27585e-06)
(-1.17556e-07 2.30879e-06 -6.29844e-06)
(-2.06617e-06 2.37096e-06 -8.27629e-06)
(2.05751e-06 2.26171e-06 -8.19237e-06)
(-6.94934e-08 2.35406e-06 -6.41267e-06)
(-2.19515e-06 2.29802e-06 -8.39946e-06)
(1.94061e-06 2.45677e-06 -7.94479e-06)
(-4.38519e-08 2.39754e-06 -6.35268e-06)
(-2.30587e-06 2.18594e-06 -8.28847e-06)
(-2.29488e-06 2.76503e-06 -9.53571e-06)
(-3.28419e-06 1.20302e-06 -6.33864e-06)
(-1.10711e-06 1.43164e-06 -8.9408e-06)
(2.03761e-06 -4.32097e-06 -7.74793e-06)
(-1.35031e-07 -2.01331e-07 -6.77922e-06)
(-3.31426e-06 -2.47429e-06 -7.32035e-06)
(-1.03966e-07 1.3855e-06 -9.21493e-06)
(3.14511e-06 -3.21522e-06 -7.17008e-06)
(-3.756e-08 -1.42477e-07 -6.76978e-06)
(-3.14375e-06 -2.7926e-06 -7.29199e-06)
(-1.32771e-08 1.4058e-06 -9.30525e-06)
(3.06285e-06 -3.15828e-06 -7.26581e-06)
(-1.53147e-08 -1.26383e-07 -6.76645e-06)
(-3.08789e-06 -2.77244e-06 -7.11454e-06)
(4.60389e-09 1.41247e-06 -9.30839e-06)
(3.02385e-06 -3.27867e-06 -7.53213e-06)
(4.71509e-08 -1.78371e-07 -6.7477e-06)
(-3.0589e-06 -2.69337e-06 -6.77198e-06)
(1.70886e-07 1.43563e-06 -9.14897e-06)
(2.52906e-06 -3.67672e-06 -8.05951e-06)
(1.61682e-07 1.03247e-07 -5.63164e-06)
(-2.32513e-06 2.73784e-06 -8.14976e-06)
(2.64313e-06 1.51651e-06 -7.75398e-06)
(-2.71965e-06 2.12994e-06 -7.63646e-06)
(2.61664e-06 1.5808e-06 -7.70559e-06)
(-2.66599e-06 2.01205e-06 -7.6687e-06)
(2.66774e-06 1.67193e-06 -7.6632e-06)
(-2.67101e-06 2.00723e-06 -7.64648e-06)
(3.04478e-06 1.7096e-06 -7.77881e-06)
(-2.24549e-06 2.41029e-06 -7.4497e-06)
(1.04014e-06 1.61987e-07 -7.30597e-06)
(-1.69812e-06 9.8907e-07 -6.0237e-06)
(-1.16239e-06 1.4314e-06 -6.24954e-06)
(1.75041e-06 2.24015e-06 -7.8708e-06)
(1.35071e-07 -1.3134e-07 -4.97271e-06)
(-6.99203e-07 -7.64339e-07 -6.91755e-06)
(1.31442e-06 3.07887e-07 -1.03964e-05)
(-3.66457e-06 5.77725e-07 -6.91376e-06)
(-1.0904e-06 1.29261e-06 -6.87567e-06)
(3.92513e-06 1.97369e-07 -5.88428e-06)
(-1.8072e-07 3.48929e-07 -7.20724e-06)
(2.97514e-08 5.99834e-08 -4.70599e-06)
(4.99042e-08 7.75237e-09 -4.95343e-06)
(3.89087e-07 6.99303e-09 -4.95189e-06)
(2.15865e-06 2.58641e-06 -6.54906e-06)
(-3.97568e-07 -1.53434e-06 -6.54559e-06)
(6.6199e-08 5.09388e-08 -6.07921e-06)
(-1.1552e-07 1.5512e-06 -6.62911e-06)
(1.35156e-06 4.95711e-08 -1.05653e-05)
(-3.23212e-06 -9.80467e-08 -6.70418e-06)
(-3.22281e-06 3.09713e-07 -6.79342e-06)
(6.44339e-06 5.3065e-08 -5.96219e-06)
(-1.19461e-07 1.6649e-06 -6.68314e-06)
(1.67235e-06 -2.51399e-06 -6.48191e-06)
(2.7334e-06 2.2573e-06 -7.0869e-06)
(9.71113e-08 6.21268e-08 -5.91984e-06)
(3.51346e-08 -5.39754e-08 -6.20135e-06)
(2.2856e-08 -6.07942e-09 -5.27145e-06)
(1.02853e-08 1.76535e-09 -3.63626e-06)
(2.71637e-09 4.92298e-09 -2.35727e-06)
(-2.55545e-10 4.28131e-09 -1.42902e-06)
(-1.02907e-09 2.99099e-09 -8.10446e-07)
(-1.02068e-09 1.93008e-09 -4.31486e-07)
(-7.4174e-10 1.11327e-09 -2.21422e-07)
(-8.17065e-11 2.77867e-10 -1.3623e-07)
(-2.8579e-10 3.4383e-10 -1.04314e-07)
(-1.29464e-08 1.3314e-08 -7.7429e-08)
(-1.2032e-08 -4.44804e-09 -8.10875e-08)
(1.9063e-09 -2.33756e-09 -1.2593e-07)
(7.07964e-09 -9.02644e-09 -8.75908e-08)
(4.49364e-11 1.17369e-08 -7.36278e-08)
(1.00074e-08 -4.94436e-09 -8.4053e-08)
(-1.21446e-08 -1.05471e-08 -8.28359e-08)
(-1.02676e-09 -1.51369e-08 -1.13412e-07)
(-3.51302e-09 -1.67412e-08 -8.6095e-08)
(1.89671e-08 -5.88167e-10 -1.1134e-07)
(1.51458e-08 1.28893e-08 -8.20951e-08)
(3.64628e-09 -9.36489e-09 -8.57756e-08)
(1.20349e-08 9.93302e-10 -1.09889e-07)
(7.24125e-09 1.04953e-08 -8.23223e-08)
(5.2811e-09 -1.03512e-08 -8.4456e-08)
(1.29581e-08 4.66843e-10 -1.11163e-07)
(5.90186e-09 1.08523e-08 -8.36801e-08)
(6.39927e-09 -1.11733e-08 -8.2984e-08)
(1.31681e-08 -4.16976e-10 -1.11507e-07)
(5.004e-09 1.0021e-08 -8.44967e-08)
(1.05366e-08 -1.21637e-08 -8.31457e-08)
(1.49905e-08 -1.06444e-09 -1.14167e-07)
(1.66579e-08 -3.50666e-09 -8.65877e-08)
(6.44635e-10 1.88019e-08 -1.11935e-07)
(-1.27822e-08 1.51301e-08 -8.26552e-08)
(3.13422e-10 -1.13827e-08 -7.40782e-08)
(9.08193e-09 7.18016e-09 -8.79022e-08)
(-1.17044e-08 5.55795e-09 -8.01706e-08)
(-1.32131e-08 -1.29504e-08 -7.77051e-08)
(2.43907e-09 2.01392e-09 -1.26279e-07)
(4.5286e-09 -1.20063e-08 -8.13246e-08)
(2.03997e-09 9.17049e-09 -8.10419e-08)
(-1.02731e-08 9.88721e-09 -7.70379e-08)
(-1.14147e-08 -1.10789e-08 -7.78105e-08)
(2.82473e-09 -1.67266e-10 -1.27819e-07)
(2.42953e-09 -9.75985e-09 -8.12344e-08)
(3.20272e-09 9.94464e-09 -8.09661e-08)
(-1.13252e-08 1.13514e-08 -7.73939e-08)
(-1.0467e-08 -9.72221e-09 -7.75024e-08)
(2.87036e-09 2.33442e-11 -1.27616e-07)
(1.21544e-09 -8.83025e-09 -8.10348e-08)
(5.66153e-09 1.1897e-08 -7.99661e-08)
(-1.13924e-08 -2.38953e-10 -7.38038e-08)
(1.50686e-08 1.03203e-10 -1.01349e-07)
(-3.64245e-08 4.11223e-08 -9.21876e-08)
(-4.72171e-08 -3.14749e-08 -1.06979e-07)
(5.61699e-08 4.62668e-08 -1.64662e-07)
(-8.44027e-08 -6.73759e-08 -2.169e-07)
(-5.06285e-09 3.79412e-09 -1.15244e-07)
(-4.21174e-08 -2.79188e-08 -1.48402e-07)
(1.09747e-09 1.49644e-09 -9.05607e-08)
(3.49934e-08 3.74896e-09 -1.08558e-07)
(-7.80747e-09 -2.65623e-09 -6.53122e-08)
(3.26247e-08 1.00025e-08 -8.5946e-08)
(1.59244e-08 -1.97639e-08 -8.93212e-08)
(2.40996e-08 1.99217e-08 -8.36073e-08)
(-4.38e-08 -3.91201e-08 -1.0163e-07)
(1.53344e-08 2.18204e-10 -1.04896e-07)
(-3.79698e-08 4.03031e-08 -9.75764e-08)
(3.34493e-08 -5.24263e-08 -1.57378e-07)
(4.34487e-08 5.46932e-08 -1.5586e-07)
(-7.11032e-08 -7.60835e-08 -2.04992e-07)
(7.13785e-09 5.37005e-10 -1.44673e-07)
(-6.05393e-08 7.55039e-08 -2.05142e-07)
(7.53197e-08 -1.08166e-07 -2.95788e-07)
(9.3828e-08 1.12499e-07 -2.95786e-07)
(-1.3881e-07 -1.56038e-07 -4.07634e-07)
(9.49359e-09 9.65901e-10 -2.86872e-07)
(-1.16558e-07 1.53638e-07 -4.08726e-07)
(1.54401e-07 -2.14715e-07 -5.74682e-07)
(1.89124e-07 2.22677e-07 -5.7483e-07)
(-2.65128e-07 -3.01841e-07 -7.79817e-07)
(1.76723e-08 1.59753e-09 -5.57509e-07)
(-2.21661e-07 2.96949e-07 -7.81437e-07)
(2.92371e-07 -4.0138e-07 -1.06534e-06)
(3.56033e-07 4.15707e-07 -1.06575e-06)
(-4.80766e-07 -5.46345e-07 -1.40304e-06)
(3.04936e-08 2.7198e-09 -1.02144e-06)
(-4.01984e-07 5.37336e-07 -1.40616e-06)
(5.11326e-07 -7.04066e-07 -1.85521e-06)
(6.24431e-07 7.28633e-07 -1.85699e-06)
(-8.24534e-07 -9.2476e-07 -2.36352e-06)
(4.89601e-08 4.65877e-09 -1.75308e-06)
(-6.9055e-07 9.0832e-07 -2.36995e-06)
(8.27274e-07 -1.15867e-06 -3.02898e-06)
(1.01999e-06 1.19803e-06 -3.03445e-06)
(-1.33369e-06 -1.4604e-06 -3.72722e-06)
(7.5012e-08 7.24962e-09 -2.81597e-06)
(-1.1147e-06 1.42912e-06 -3.73896e-06)
(1.23655e-06 -1.7806e-06 -4.6252e-06)
(1.54996e-06 1.83766e-06 -4.63852e-06)
(-2.00437e-06 -2.11704e-06 -5.50096e-06)
(1.12487e-07 1.08573e-08 -4.21573e-06)
(-1.65254e-06 2.05789e-06 -5.52247e-06)
(1.66906e-06 -2.52214e-06 -6.50547e-06)
(2.0774e-06 2.54232e-06 -6.51949e-06)
(-3.48114e-07 -1.54012e-06 -6.61881e-06)
(1.29363e-06 -1.19673e-08 -1.05637e-05)
(-3.19822e-06 -1.89464e-07 -6.70105e-06)
(-3.2622e-06 9.64914e-08 -6.68138e-06)
(6.46906e-06 -5.5115e-08 -5.98018e-06)
(-2.90866e-07 -2.67906e-09 -8.1119e-06)
(-3.09116e-07 1.33496e-08 -8.09433e-06)
(5.93704e-08 2.25538e-08 -4.95391e-06)
(4.23437e-07 2.04095e-09 -4.95977e-06)
(2.15068e-06 2.58905e-06 -6.53866e-06)
(-2.84935e-07 -1.53353e-06 -6.60039e-06)
(8.81416e-08 6.19984e-09 -6.03117e-06)
(-3.50659e-07 1.84734e-06 -6.71861e-06)
(1.24298e-06 -2.9361e-07 -1.05619e-05)
(-3.25099e-06 -1.37137e-07 -6.74687e-06)
(-3.20825e-06 1.20335e-07 -6.67241e-06)
(6.42924e-06 -1.08305e-07 -5.99595e-06)
(-1.64794e-07 1.54054e-06 -6.59048e-06)
(1.67104e-06 -2.55055e-06 -6.51166e-06)
(6.33594e-08 1.60986e-08 -6.07418e-06)
(5.52984e-08 1.10005e-08 -6.05466e-06)
(2.69722e-08 3.17222e-08 -5.26166e-06)
(1.34791e-08 1.60084e-08 -3.63876e-06)
(4.50155e-09 5.78064e-09 -2.36172e-06)
(5.22942e-10 1.16686e-09 -1.43208e-06)
(-7.41663e-10 -4.18447e-10 -8.12125e-07)
(-9.38203e-10 -7.84831e-10 -4.32307e-07)
(-7.04172e-10 -6.45464e-10 -2.21797e-07)
(-9.37053e-11 -5.41679e-11 -1.36457e-07)
(-2.87116e-10 -2.66671e-10 -1.04539e-07)
(9.85495e-09 -1.05056e-08 -7.75251e-08)
(-1.11729e-08 -1.13643e-08 -7.76297e-08)
(1.12694e-08 -1.142e-08 -7.75817e-08)
(-9.75999e-09 -1.04731e-08 -7.73831e-08)
(1.18374e-10 2.96801e-09 -1.27619e-07)
(9.70736e-09 2.91324e-09 -8.09495e-08)
(-8.79636e-09 1.3912e-09 -8.10522e-08)
(6.52687e-11 -1.33198e-08 -7.63795e-08)
(-1.00601e-08 5.54389e-09 -8.45671e-08)
(3.5229e-11 -1.27584e-08 -1.30291e-07)
(-9.57975e-09 2.87362e-09 -8.09526e-08)
(2.7105e-11 2.97527e-09 -1.27738e-07)
(8.91286e-09 1.4429e-09 -8.12024e-08)
(3.46686e-10 -1.25943e-08 -1.29338e-07)
(9.30361e-09 3.67267e-09 -8.5884e-08)
(-8.35249e-10 1.17423e-08 -1.0996e-07)
(-1.0245e-08 7.0553e-09 -8.25015e-08)
(-1.99619e-11 -1.33287e-08 -7.64721e-08)
(1.00927e-08 5.57249e-09 -8.46266e-08)
(1.04274e-11 1.277e-08 -1.1006e-07)
(2.67857e-11 1.7939e-08 -6.0363e-08)
(1.94269e-08 1.99793e-08 -8.64233e-08)
(-3.91691e-08 -3.99642e-08 -9.7661e-08)
(3.92818e-08 -3.99431e-08 -9.75588e-08)
(-3.84874e-08 -4.27232e-08 -1.01732e-07)
(5.40315e-08 4.1336e-08 -1.55987e-07)
(-7.51162e-08 -6.82708e-08 -2.05149e-07)
(1.11124e-07 8.91225e-08 -2.96096e-07)
(-1.5395e-07 -1.32379e-07 -4.07839e-07)
(2.19802e-07 1.79521e-07 -5.75465e-07)
(-2.97726e-07 -2.52204e-07 -7.80006e-07)
(4.10226e-07 3.38027e-07 -1.0669e-06)
(-5.38886e-07 -4.56851e-07 -1.40326e-06)
(7.19021e-07 5.93012e-07 -1.85905e-06)
(-9.11957e-07 -7.83445e-07 -2.36365e-06)
(1.18251e-06 9.69427e-07 -3.03843e-06)
(-1.44003e-06 -1.26934e-06 -3.72619e-06)
(1.81553e-06 1.47798e-06 -4.64657e-06)
(-2.08894e-06 -1.91739e-06 -5.49495e-06)
(2.55924e-06 2.07628e-06 -6.56652e-06)
(-1.52307e-06 -3.48521e-07 -6.54101e-06)
(3.98843e-08 1.3741e-06 -1.0571e-05)
(1.54489e-06 -1.9058e-07 -6.65938e-06)
(4.5559e-08 7.22011e-08 -6.07859e-06)
(-2.49111e-06 1.79815e-06 -6.49153e-06)
(2.03658e-06 -1.76392e-06 -5.53855e-06)
(1.24496e-08 1.17476e-07 -4.21926e-06)
(-1.75926e-06 1.33984e-06 -4.6256e-06)
(1.41209e-06 -1.19983e-06 -3.74579e-06)
(7.24524e-09 7.72596e-08 -2.81843e-06)
(-1.145e-06 8.97668e-07 -3.03186e-06)
(8.96859e-07 -7.45817e-07 -2.37252e-06)
(4.22728e-09 4.9996e-08 -1.75447e-06)
(-6.95861e-07 5.54376e-07 -1.85743e-06)
(5.30383e-07 -4.34598e-07 -1.40712e-06)
(2.36592e-09 3.09674e-08 -1.02216e-06)
(-3.96741e-07 3.16759e-07 -1.06669e-06)
(2.93091e-07 -2.39487e-07 -7.81801e-07)
(1.32955e-09 1.78854e-08 -5.57881e-07)
(-2.12267e-07 1.67429e-07 -5.75575e-07)
(1.5168e-07 -1.25526e-07 -4.08783e-07)
(7.85075e-10 9.60374e-09 -2.87059e-07)
(-1.06967e-07 8.17921e-08 -2.96402e-07)
(7.45127e-08 -6.47082e-08 -2.05067e-07)
(4.558e-10 7.18241e-09 -1.44734e-07)
(-5.17578e-08 3.62785e-08 -1.57678e-07)
(1.17065e-10 -3.8089e-09 -1.11737e-07)
(5.20258e-08 3.6306e-08 -1.57666e-07)
(-7.41062e-08 -6.46344e-08 -2.05163e-07)
(-2.41779e-10 7.19103e-09 -1.44822e-07)
(-5.37279e-08 4.14938e-08 -1.56134e-07)
(3.86311e-08 -4.25869e-08 -1.01851e-07)
(-1.15151e-10 1.53954e-08 -1.05103e-07)
(-1.9552e-08 2.3332e-08 -8.36529e-08)
(-1.29687e-09 1.63538e-08 -6.09427e-08)
(1.97274e-08 1.61174e-08 -8.98447e-08)
(-4.06317e-08 -3.7361e-08 -9.25467e-08)
(5.15455e-08 3.28634e-08 -1.57579e-07)
(-7.41688e-08 -6.11695e-08 -2.04647e-07)
(1.05462e-07 7.84405e-08 -2.95728e-07)
(-1.49189e-07 -1.1845e-07 -4.09014e-07)
(2.10048e-07 1.62573e-07 -5.7648e-07)
(-2.86768e-07 -2.26791e-07 -7.82171e-07)
(3.93957e-07 3.08674e-07 -1.07147e-06)
(-5.17393e-07 -4.1321e-07 -1.40748e-06)
(6.9412e-07 5.41893e-07 -1.86984e-06)
(-8.7318e-07 -7.1443e-07 -2.37156e-06)
(1.15064e-06 8.85587e-07 -3.06446e-06)
(-1.37134e-06 -1.16113e-06 -3.72911e-06)
(1.78384e-06 1.3463e-06 -4.7069e-06)
(-1.96136e-06 -1.70212e-06 -5.45464e-06)
(2.52162e-06 1.83161e-06 -6.61262e-06)
(-1.50555e-06 -1.79991e-07 -6.58763e-06)
(-3.83844e-07 1.03569e-06 -1.04642e-05)
(6.27085e-07 -7.42819e-07 -7.01729e-06)
(6.79105e-08 1.11118e-07 -5.90583e-06)
(-2.34965e-06 2.53901e-06 -7.12108e-06)
(1.7941e-06 -2.482e-06 -6.01109e-06)
(1.19776e-08 1.44278e-07 -4.10866e-06)
(-1.60928e-06 1.9532e-06 -5.04471e-06)
(1.27855e-06 -1.63126e-06 -4.03012e-06)
(-7.84858e-09 8.76031e-08 -2.74008e-06)
(-1.01359e-06 1.29095e-06 -3.28428e-06)
(8.03778e-07 -9.88078e-07 -2.53492e-06)
(-9.61118e-09 5.29796e-08 -1.70103e-06)
(-6.10865e-07 7.87251e-07 -2.00333e-06)
(4.70989e-07 -5.70641e-07 -1.49784e-06)
(-7.20482e-09 3.20353e-08 -9.89512e-07)
(-3.48421e-07 4.50641e-07 -1.14848e-06)
(2.599e-07 -3.12849e-07 -8.30174e-07)
(-5.33041e-09 1.83059e-08 -5.39409e-07)
(-1.86445e-07 2.41733e-07 -6.17613e-07)
(1.35462e-07 -1.62434e-07 -4.32419e-07)
(-3.84179e-09 9.9632e-09 -2.77112e-07)
(-9.37846e-08 1.21361e-07 -3.15982e-07)
(6.75117e-08 -8.28131e-08 -2.17077e-07)
(-2.92626e-09 7.51157e-09 -1.39115e-07)
(-4.52728e-08 5.57061e-08 -1.64747e-07)
(3.13589e-08 -4.6644e-08 -1.07193e-07)
(-3.40658e-12 1.51575e-08 -1.01679e-07)
(-9.82467e-09 3.26625e-08 -8.62435e-08)
(1.5847e-08 2.81034e-08 -8.65975e-08)
(2.64892e-08 -1.39539e-08 -7.96121e-08)
(-2.76276e-09 3.50806e-08 -1.08755e-07)
(2.24482e-09 -7.77772e-09 -6.53096e-08)
(-5.03356e-09 3.52992e-09 -7.48137e-08)
(1.61252e-08 3.80277e-08 -9.56741e-08)
(-5.03223e-08 -3.38198e-08 -9.04135e-08)
(5.02816e-08 4.08944e-08 -1.59449e-07)
(-8.56808e-08 -5.39662e-08 -2.11007e-07)
(-5.77116e-08 8.63362e-08 -2.04522e-07)
(-7.2475e-08 -7.70433e-08 -2.04906e-07)
(7.4181e-09 -9.53641e-10 -1.43478e-07)
(3.51907e-08 -6.27424e-08 -1.55265e-07)
(3.93932e-08 5.36179e-08 -1.58336e-07)
(-4.30384e-08 -4.18041e-08 -9.41437e-08)
(1.46054e-08 7.70721e-10 -1.04603e-07)
(-3.7653e-08 4.29296e-08 -1.03243e-07)
(-4.38935e-09 1.49734e-09 -1.11227e-07)
(5.1039e-10 -3.56122e-10 -1.08397e-07)
(-1.31794e-08 -1.06124e-08 -1.23742e-07)
(9.55999e-10 8.98979e-10 -9.12174e-08)
(-6.16301e-10 -8.38543e-10 -8.69933e-08)
(-1.3201e-08 5.43674e-10 -1.29048e-07)
(-1.42243e-09 -4.58636e-10 -1.1841e-07)
(-4.25753e-09 -2.7879e-10 -1.11745e-07)
(-3.91302e-08 4.00276e-08 -1.00918e-07)
(-4.2511e-08 -4.01657e-08 -9.82628e-08)
(4.05562e-08 5.32501e-08 -1.5773e-07)
(-7.05205e-08 -7.54544e-08 -2.05176e-07)
(-5.45292e-09 1.94451e-10 -2.04349e-07)
(9.07862e-08 1.09861e-07 -2.96571e-07)
(-1.3808e-07 -1.53644e-07 -4.08847e-07)
(1.8576e-07 2.18237e-07 -5.75807e-07)
(-2.64028e-07 -2.96778e-07 -7.81777e-07)
(-2.18562e-08 1.23576e-09 -7.5055e-07)
(3.52022e-07 4.0848e-07 -1.0676e-06)
(-4.79279e-07 -5.36506e-07 -1.40619e-06)
(6.18551e-07 7.1761e-07 -1.86054e-06)
(-8.22492e-07 -9.06119e-07 -2.36806e-06)
(-1.77244e-08 3.42354e-09 -2.20413e-06)
(1.00921e-06 1.18168e-06 -3.04027e-06)
(-1.32492e-06 -1.42542e-06 -3.73128e-06)
(1.52356e-06 1.8105e-06 -4.64283e-06)
(-1.96221e-06 -2.05789e-06 -5.50637e-06)
(4.07156e-07 -3.97276e-09 -4.95968e-06)
(5.86403e-08 3.6177e-09 -4.95344e-06)
(4.8268e-09 5.83314e-09 -3.42563e-06)
(9.02154e-09 1.68127e-08 -3.43096e-06)
(-2.02493e-08 7.88967e-09 -2.22348e-06)
(-1.51825e-08 8.68806e-09 -2.21233e-06)
(1.04825e-06 1.19531e-06 -3.05915e-06)
(-1.36059e-06 -1.42578e-06 -3.73748e-06)
(8.44583e-08 6.08737e-09 -2.82257e-06)
(-1.10348e-06 1.6968e-06 -3.78023e-06)
(1.15348e-06 -2.07162e-06 -4.62756e-06)
(1.59395e-06 1.84906e-06 -4.68374e-06)
(-1.96989e-06 -2.03902e-06 -5.4819e-06)
(1.38818e-07 1.83779e-08 -4.22052e-06)
(-1.7329e-06 2.49298e-06 -5.61501e-06)
(1.48207e-06 -2.83306e-06 -6.44841e-06)
(2.98163e-06 1.82535e-06 -7.30914e-06)
(-2.1437e-07 -1.41745e-06 -6.4563e-06)
(1.78519e-07 -2.73831e-06 -1.06896e-05)
(-3.50938e-06 -2.17389e-07 -6.9289e-06)
(-3.26665e-06 1.14108e-08 -6.55582e-06)
(6.16594e-06 -9.80339e-07 -6.21076e-06)
(-4.26749e-07 -2.67071e-07 -7.94915e-06)
(5.31011e-08 3.27023e-08 -4.71577e-06)
(9.85604e-08 1.33765e-06 -4.31078e-06)
(-1.3729e-06 1.60927e-06 -5.83829e-06)
(2.57086e-07 9.89259e-08 -3.51252e-06)
(7.23078e-07 -2.0196e-06 -4.68607e-06)
(-7.52893e-07 1.28944e-06 -3.82827e-06)
(4.53542e-08 -7.85937e-09 -2.29103e-06)
(5.0312e-07 -1.08353e-06 -3.06319e-06)
(-4.4542e-07 8.14662e-07 -2.37156e-06)
(-5.83908e-10 -1.84524e-08 -1.41114e-06)
(2.92817e-07 -6.13491e-07 -1.87625e-06)
(-2.68966e-07 4.8406e-07 -1.39728e-06)
(-5.16329e-09 -1.17895e-08 -8.19696e-07)
(1.53944e-07 -3.35017e-07 -1.07084e-06)
(-1.47897e-07 2.67163e-07 -7.66467e-07)
(-6.55441e-09 -9.07749e-09 -4.45598e-07)
(8.49818e-08 -1.78083e-07 -5.75492e-07)
(-7.58742e-08 1.43849e-07 -3.966e-07)
(-6.18284e-09 -6.23166e-09 -2.2832e-07)
(4.49942e-08 -8.53033e-08 -2.90528e-07)
(-3.2522e-08 7.41409e-08 -1.97342e-07)
(-4.96143e-09 -5.81459e-09 -1.14757e-07)
(2.93089e-08 -3.96842e-08 -1.48232e-07)
(9.39498e-09 7.66574e-09 -9.70675e-08)
(6.30931e-09 1.40387e-08 -9.28668e-08)
(-5.85632e-10 -2.69424e-08 -1.36037e-07)
(-3.03394e-10 -3.06742e-09 -1.36133e-07)
(1.91568e-08 5.14612e-08 -1.77593e-07)
(-7.99606e-09 -7.04377e-08 -2.65972e-07)
(1.12146e-07 7.81798e-08 -2.98841e-07)
(-1.67266e-07 -1.09003e-07 -4.20101e-07)
(2.30619e-07 1.53705e-07 -5.87374e-07)
(-3.21053e-07 -2.103e-07 -8.0384e-07)
(-2.07077e-07 3.39526e-07 -7.7988e-07)
(-2.71268e-07 -2.99227e-07 -7.83675e-07)
(1.80724e-08 -1.99938e-09 -5.5656e-07)
(1.51843e-07 -2.50836e-07 -5.77288e-07)
(1.908e-07 2.17933e-07 -5.76633e-07)
(-1.41617e-07 -1.55458e-07 -4.09725e-07)
(9.72434e-09 -1.61571e-09 -2.85975e-07)
(-1.0839e-07 1.7533e-07 -4.0648e-07)
(-9.22008e-09 9.75123e-10 -3.97828e-07)
(-4.66747e-09 -4.88786e-09 -3.84803e-07)
(-1.87853e-09 -2.46562e-09 -1.96096e-07)
(-3.41521e-09 -4.32373e-09 -1.69262e-07)
(-6.17782e-09 -1.77205e-08 -2.06822e-07)
(3.94802e-09 -2.93438e-09 -1.89562e-07)
(1.74214e-09 1.02939e-09 -1.8042e-07)
(-5.41997e-09 -7.7182e-10 -2.15753e-07)
(-2.77073e-08 4.2751e-09 -2.21877e-07)
(-8.78783e-09 3.38691e-09 -1.22731e-07)
(1.70689e-08 1.31675e-09 -9.25586e-08)
(2.23461e-08 -1.97952e-09 -6.29296e-08)
(1.94338e-08 3.07499e-08 -1.07954e-07)
(7.11903e-09 9.71815e-09 -6.17253e-08)
(3.58393e-08 1.39987e-09 -9.44185e-08)
(1.17674e-08 8.102e-09 -1.17223e-07)
(1.67369e-08 -2.49609e-09 -1.56513e-07)
(1.96891e-08 -8.94582e-09 -3.02824e-07)
(-2.32329e-08 -6.75027e-09 -4.2563e-07)
(-5.20003e-08 6.56273e-09 -4.28592e-07)
(-9.00083e-08 1.16087e-08 -8.03954e-07)
(-4.65899e-08 -1.2149e-08 -8.08191e-07)
(2.89291e-08 -1.82752e-08 -5.85327e-07)
(-2.35093e-08 -1.44402e-07 -5.25768e-07)
(4.85169e-09 -1.02951e-08 -5.35809e-07)
(5.37702e-08 1.83762e-07 -7.03179e-07)
(-4.78062e-08 -2.73429e-07 -9.7522e-07)
(4.37134e-07 2.86911e-07 -1.0985e-06)
(-5.83544e-07 -3.8004e-07 -1.44686e-06)
(7.71675e-07 5.07349e-07 -1.92294e-06)
(-1.00966e-06 -6.43687e-07 -2.44104e-06)
(-6.59445e-07 1.0558e-06 -2.38069e-06)
(-8.47473e-07 -9.09992e-07 -2.37527e-06)
(5.187e-08 -1.7239e-10 -1.75476e-06)
(4.92539e-07 -8.17784e-07 -1.86687e-06)
(6.39375e-07 7.21068e-07 -1.86817e-06)
(-4.93235e-07 -5.39869e-07 -1.41003e-06)
(3.1559e-08 -1.88264e-09 -1.02108e-06)
(-3.78431e-07 6.17604e-07 -1.40762e-06)
(-2.05475e-08 5.4556e-09 -1.33451e-06)
(-7.94818e-09 -9.35839e-09 -1.27859e-06)
(-7.27781e-09 -7.48089e-09 -7.23684e-07)
(-9.30763e-09 4.33904e-09 -6.33577e-07)
(-2.2616e-08 -6.80129e-08 -7.57041e-07)
(-1.14757e-09 -3.41596e-08 -7.31234e-07)
(-6.70891e-09 -2.4138e-08 -6.96296e-07)
(-1.32729e-08 -3.7854e-08 -4.02286e-07)
(-3.95011e-10 -1.65508e-08 -3.75866e-07)
(-2.64775e-09 -1.19252e-08 -3.58444e-07)
(3.17937e-08 9.68575e-08 -3.62661e-07)
(2.39637e-09 -5.53038e-09 -2.73873e-07)
(-6.01112e-09 -2.15833e-09 -3.346e-07)
(-5.61952e-10 1.70649e-08 -3.10531e-07)
(1.07493e-09 -2.79252e-08 -2.24794e-07)
(3.46126e-10 -9.04988e-09 -1.24153e-07)
(-1.07397e-09 1.92978e-08 -9.31449e-08)
(2.02424e-09 3.53209e-08 -9.37686e-08)
(-2.39961e-08 6.31102e-08 -8.55569e-08)
(-2.70104e-09 1.22253e-09 -1.12823e-07)
(-1.60037e-09 -3.07689e-10 -9.03081e-08)
(-5.06604e-10 7.86154e-09 -1.59797e-07)
(-3.72866e-10 4.33574e-09 -1.5981e-07)
(7.56108e-08 -6.80071e-08 -2.0531e-07)
(4.63994e-10 -5.54663e-09 -2.03582e-07)
(-1.10514e-07 8.96449e-08 -2.96266e-07)
(1.07649e-07 8.1791e-08 -2.96482e-07)
(-1.50674e-07 -1.25214e-07 -4.08816e-07)
(-1.81266e-10 9.63726e-09 -2.87293e-07)
(1.55284e-07 -1.32272e-07 -4.08405e-07)
(1.2308e-09 -1.14258e-08 -3.98062e-07)
(-2.18605e-07 1.80389e-07 -5.75762e-07)
(2.13957e-07 1.67613e-07 -5.76106e-07)
(-2.9087e-07 -2.3871e-07 -7.8152e-07)
(2.27701e-10 1.79929e-08 -5.58492e-07)
(3.00817e-07 -2.53064e-07 -7.81892e-07)
(2.50545e-09 -1.98748e-08 -7.49824e-07)
(-4.07864e-07 3.3865e-07 -1.06746e-06)
(4.00585e-07 3.17828e-07 -1.06865e-06)
(-5.25827e-07 -4.33233e-07 -1.40573e-06)
(1.2496e-09 3.12328e-08 -1.02359e-06)
(5.45476e-07 -4.60429e-07 -1.40819e-06)
(4.838e-09 -2.49114e-08 -1.32847e-06)
(-7.14831e-07 5.91335e-07 -1.85972e-06)
(7.03819e-07 5.58328e-07 -1.86295e-06)
(-8.88256e-07 -7.44557e-07 -2.36745e-06)
(3.497e-09 5.0677e-08 -1.75736e-06)
(9.24869e-07 -7.93809e-07 -2.37522e-06)
(8.03556e-09 -5.10241e-09 -2.20504e-06)
(-1.17584e-06 9.56301e-07 -3.0361e-06)
(1.15944e-06 9.11204e-07 -3.04638e-06)
(-1.3975e-06 -1.20421e-06 -3.72873e-06)
(8.01684e-09 7.88398e-08 -2.82297e-06)
(1.46009e-06 -1.28967e-06 -3.75171e-06)
(6.65068e-09 1.05946e-07 -3.42603e-06)
(-1.8038e-06 1.41934e-06 -4.62674e-06)
(1.77853e-06 1.38222e-06 -4.65834e-06)
(-2.01783e-06 -1.79772e-06 -5.49442e-06)
(1.35195e-08 1.20146e-07 -4.22121e-06)
(2.09947e-06 -1.9204e-06 -5.54259e-06)
(-1.52709e-08 4.92491e-07 -4.95051e-06)
(-2.53524e-06 1.90524e-06 -6.49204e-06)
(2.49955e-06 1.90492e-06 -6.55205e-06)
(-1.5318e-06 -2.51818e-07 -6.61258e-06)
(-3.90924e-09 7.33681e-08 -6.06814e-06)
(1.51866e-06 -3.11955e-07 -6.61651e-06)
(-1.09885e-07 6.43803e-06 -6.03125e-06)
(-2.6711e-07 -3.21255e-06 -6.72308e-06)
(-1.97893e-07 -3.32545e-06 -6.48746e-06)
(-3.26208e-07 4.82114e-06 -5.80018e-06)
(-3.13853e-06 1.27507e-06 -7.85863e-06)
(6.35099e-07 4.37636e-07 -5.08104e-06)
(3.83601e-07 -3.62703e-06 -6.49793e-06)
(-2.37225e-07 -8.72452e-07 -4.8207e-06)
(-4.74e-07 -5.33175e-07 -4.60938e-06)
(-1.3968e-07 1.48957e-06 -5.48747e-06)
(-2.32385e-06 -1.56726e-06 -5.44688e-06)
(5.43929e-07 -3.03357e-08 -5.00533e-06)
(-1.03869e-06 7.99628e-08 -5.38746e-06)
(-1.3524e-06 -3.19746e-07 -5.44574e-06)
(-2.20854e-07 -3.53251e-07 -4.5963e-06)
(-4.03628e-07 -7.63766e-08 -3.79057e-06)
(-5.41552e-07 9.34245e-08 -3.7198e-06)
(-2.79008e-07 4.77772e-08 -2.37292e-06)
(-1.50734e-07 -2.44582e-08 -2.41173e-06)
(7.07591e-08 -5.5928e-08 -1.84803e-06)
(-8.01826e-08 -1.89397e-08 -1.43997e-06)
(-1.54793e-07 2.2566e-08 -1.42391e-06)
(-1.42616e-07 6.00235e-09 -1.41298e-06)
(-8.24734e-08 2.67565e-09 -8.00531e-07)
(-4.89925e-08 1.01383e-09 -4.2903e-07)
(-2.78515e-08 4.60579e-12 -2.23318e-07)
(-8.72328e-09 -5.4096e-10 -1.23166e-07)
(2.0571e-08 -1.91171e-09 -9.24983e-08)
(1.94389e-08 -8.63783e-10 -6.11851e-08)
(2.001e-08 2.04618e-08 -8.89539e-08)
(2.29722e-08 -2.05145e-08 -7.85258e-08)
(3.24644e-08 4.6452e-11 -9.43261e-08)
(3.10952e-08 1.29439e-10 -9.53e-08)
(2.13513e-08 -2.09577e-08 -8.43182e-08)
(2.15243e-08 2.06073e-08 -8.70923e-08)
(1.53074e-08 -7.36962e-11 -1.053e-07)
(-1.34567e-08 5.81905e-11 -7.62932e-08)
(4.08209e-09 -8.19125e-11 -9.34281e-08)
(-1.5145e-09 -1.55567e-09 -8.71456e-08)
(-1.04341e-09 -1.00356e-09 -8.70822e-08)
(3.70999e-09 3.71054e-09 -9.35138e-08)
(-1.17184e-08 5.99806e-11 -7.39309e-08)
(-2.92164e-11 4.26066e-09 -9.31242e-08)
(4.28977e-13 -1.5253e-09 -8.73802e-08)
(-1.22516e-11 -1.88295e-09 -8.80355e-08)
(4.81499e-11 -1.61735e-10 -1.05623e-07)
(-7.48878e-09 7.21969e-09 -7.64751e-08)
(-8.75058e-09 -8.70439e-09 -7.73461e-08)
(-8.73507e-09 8.88877e-09 -7.72377e-08)
(-7.51819e-09 -7.03563e-09 -7.65492e-08)
(7.58011e-09 -7.18428e-09 -7.63513e-08)
(-5.91127e-09 -5.84303e-09 -7.55761e-08)
(3.82572e-10 3.77309e-10 -1.30312e-07)
(8.9001e-09 8.8637e-09 -7.71374e-08)
(-7.13224e-09 7.67066e-09 -7.65027e-08)
(-7.10602e-09 -7.52393e-09 -7.65131e-08)
(3.95999e-10 -2.29153e-10 -1.30418e-07)
(8.81566e-09 -8.7865e-09 -7.7241e-08)
(4.45579e-11 5.02354e-11 -1.06736e-07)
(1.01052e-10 1.13196e-10 -1.38916e-07)
(1.09261e-10 -1.3031e-11 -1.37567e-07)
(9.63856e-11 -1.36927e-09 -1.18722e-07)
(-5.55386e-10 -1.403e-09 -1.18082e-07)
(1.29018e-10 -4.66564e-09 -1.1099e-07)
(-2.62726e-10 -4.8236e-09 -2.06882e-07)
(-2.24351e-10 -9.85609e-09 -4.05312e-07)
(3.28552e-10 -1.60922e-08 -7.61616e-07)
(1.99159e-09 -2.12535e-08 -1.34377e-06)
(5.79759e-09 -1.69502e-08 -2.21866e-06)
(-2.34248e-10 -7.0658e-09 -2.1148e-06)
(-1.0397e-08 7.93669e-08 -1.87666e-06)
(-4.84432e-08 -2.14812e-07 -2.22926e-06)
(1.67227e-08 -9.65396e-08 -2.16518e-06)
(-2.68424e-08 -3.36926e-08 -2.06454e-06)
(1.40222e-07 6.0802e-07 -2.17313e-06)
(-1.95382e-07 -7.63514e-07 -2.79633e-06)
(1.29167e-06 8.45657e-07 -3.17999e-06)
(-1.64371e-06 -1.04054e-06 -3.82097e-06)
(2.06093e-06 1.31498e-06 -5.00284e-06)
(-1.14532e-08 -6.58176e-08 -4.25582e-06)
(-5.83388e-07 -1.24564e-06 -4.23112e-06)
(-1.17756e-07 -7.14822e-08 -3.20076e-06)
(1.63076e-07 1.04035e-06 -3.52002e-06)
(1.00347e-08 -3.44572e-08 -2.77189e-06)
(6.97746e-08 -1.21363e-07 -3.00754e-06)
(1.01167e-07 1.92522e-08 -3.04603e-06)
(-2.58e-07 1.30704e-08 -2.34477e-06)
(-4.86722e-07 2.70467e-08 -3.65109e-06)
(-9.662e-07 3.25175e-08 -5.32469e-06)
(-2.26564e-06 -3.06643e-08 -7.3517e-06)
(-2.33579e-06 -3.61525e-07 -7.34888e-06)
(-5.23021e-06 1.24659e-06 -7.4223e-06)
(-2.05148e-06 -6.04742e-07 -6.12596e-06)
(-1.7393e-06 -2.01868e-06 -5.57989e-06)
(-2.23641e-08 -3.25752e-07 -5.9625e-06)
(-6.66208e-07 -4.16643e-07 -6.74459e-06)
(6.4624e-07 -4.95152e-06 -5.82596e-06)
(-4.68282e-06 -1.40938e-06 -6.73006e-06)
(-2.86642e-06 1.84072e-07 -9.88506e-06)
(-1.40208e-06 -2.11187e-06 -8.91312e-06)
(2.03331e-06 1.51916e-06 -8.53779e-06)
(1.63007e-07 7.78096e-08 -8.84691e-06)
(8.41593e-08 6.50947e-08 -5.57505e-06)
(-2.06796e-06 1.83416e-06 -7.13771e-06)
(2.17676e-06 1.53457e-06 -7.47584e-06)
(1.53558e-08 1.93009e-07 -9.0218e-06)
(-2.71885e-07 -1.7741e-07 -5.72165e-06)
(-2.25349e-06 2.01163e-06 -7.36758e-06)
(2.1825e-06 1.8104e-06 -7.50343e-06)
(4.42621e-09 2.036e-07 -9.06454e-06)
(-3.00476e-07 -2.1153e-07 -5.74692e-06)
(-2.20115e-06 1.83191e-06 -7.27646e-06)
(2.17584e-06 2.05875e-06 -7.60143e-06)
(1.68837e-08 1.9026e-07 -9.0517e-06)
(-4.80768e-07 -4.71769e-07 -5.89487e-06)
(-2.10207e-06 1.53013e-06 -7.22532e-06)
(1.55347e-06 2.08205e-06 -8.12079e-06)
(-1.35668e-06 -7.48076e-07 -1.13116e-05)
(1.19286e-06 1.22971e-06 -9.15475e-06)
(9.10894e-07 -1.06576e-06 -8.95984e-06)
(2.56107e-06 1.14143e-06 -1.13851e-05)
(-1.20499e-06 -4.46574e-06 -1.11982e-05)
(-6.65128e-07 -2.40925e-06 -8.83763e-06)
(3.75318e-07 3.76797e-07 -6.40678e-06)
(1.4339e-06 -1.10426e-06 -8.94199e-06)
(-4.29462e-06 2.05838e-06 -7.75441e-06)
(-2.03291e-07 -1.30289e-07 -6.77629e-06)
(-2.48918e-06 -3.32713e-06 -7.30584e-06)
(2.47032e-06 1.95418e-06 -7.96147e-06)
(2.39664e-06 -3.57691e-08 -6.35646e-06)
(2.18402e-06 -2.30196e-06 -8.2754e-06)
(2.76472e-06 -2.29467e-06 -9.54079e-06)
(1.2014e-06 -3.28726e-06 -6.3373e-06)
(1.73529e-07 1.05468e-06 -7.3107e-06)
(9.89876e-07 -1.7021e-06 -6.02711e-06)
(1.43298e-06 -1.15466e-06 -6.25481e-06)
(2.22693e-06 1.73911e-06 -7.87325e-06)
(-7.10065e-07 -2.92926e-06 -6.48445e-06)
(1.90567e-07 -4.64606e-07 -4.74945e-06)
(1.22236e-06 1.79867e-06 -5.65173e-06)
(-7.1454e-07 -1.73625e-06 -4.60721e-06)
(1.46936e-08 -1.63838e-07 -3.30993e-06)
(7.27388e-07 1.2783e-06 -3.74647e-06)
(-4.76334e-07 -1.02189e-06 -3.02636e-06)
(2.36579e-09 -8.53088e-08 -2.12262e-06)
(4.4759e-07 8.08129e-07 -2.34863e-06)
(-2.78448e-07 -5.9683e-07 -1.8575e-06)
(3.22679e-09 -5.60357e-08 -1.27948e-06)
(2.65983e-07 4.75842e-07 -1.38601e-06)
(-1.5435e-07 -3.36469e-07 -1.06763e-06)
(2.48258e-09 -3.53542e-08 -7.21121e-07)
(1.49064e-07 2.64173e-07 -7.67891e-07)
(-8.17461e-08 -1.79352e-07 -5.7457e-07)
(9.82514e-10 -1.91749e-08 -3.8193e-07)
(7.70288e-08 1.38954e-07 -3.99029e-07)
(-4.38679e-08 -9.04505e-08 -2.92547e-07)
(-1.69642e-09 -6.53761e-09 -1.89082e-07)
(3.48696e-08 7.24806e-08 -2.00135e-07)
(-2.75287e-08 -4.19912e-08 -1.48512e-07)