/*--------------------------------*- C++ -*----------------------------------*\
| =========                 |                                                 |
| \\      /  F ield         | OpenFOAM: The Open Source CFD Toolbox           |
|  \\    /   O peration     | Version:  2306                                  |
|   \\  /    A nd           | Website:  www.openfoam.com                      |
|    \\/     M anipulation  |                                                 |
\*---------------------------------------------------------------------------*/
FoamFile
{
    version     2.0;
    format      ascii;
    arch        "LSB;label=32;scalar=64";
    class       volVectorField;
    location    "1.3";
    object      flux;
}
// * * * * * * * * * * * * * * * * * * * * * * * * * * * * * * * * * * * * * //

dimensions      [0 1 -1 1 0 0 0];

internalField   nonuniform List<vector> 
5322
(
(-0.00100589 0.00259845 -0.00348539)
(2.30306e-05 0.000244465 -0.00355613)
(2.8062e-05 -1.71809e-05 -0.00366786)
(3.15333e-06 -0.000108328 -0.00397605)
(-5.58463e-07 -5.96943e-05 -0.00394088)
(-7.20336e-07 -2.07829e-05 -0.00392576)
(-1.87849e-08 -1.9475e-07 -0.00391904)
(4.91957e-07 1.96286e-05 -0.00391941)
(2.90522e-07 5.6605e-05 -0.00392845)
(-8.46917e-07 0.000102901 -0.00395896)
(-4.02689e-06 1.06031e-06 -0.00391288)
(4.36554e-05 -0.000764626 -0.00392369)
(6.72765e-05 -0.000849823 -0.00295277)
(-0.000926757 -0.000762868 -0.004071)
(-2.45689e-05 -0.000662274 -0.00445154)
(0.00161288 0.00143323 -0.00355357)
(-0.00126743 0.00191708 -0.00420058)
(-2.00262e-05 -3.05026e-06 -0.00314483)
(-0.000967046 0.0013239 -0.00442795)
(0.000623472 -0.00156976 -0.00446886)
(-0.000847696 0.00149313 -0.00449784)
(0.000737521 -0.00151723 -0.00447848)
(-0.000780118 0.00148862 -0.00448181)
(0.000784687 -0.00152403 -0.00450663)
(-0.000794888 0.00151912 -0.00450786)
(0.000763955 -0.00149088 -0.00448447)
(-0.000765645 0.00148986 -0.00448784)
(0.000794756 -0.00152172 -0.00451048)
(-0.000782975 0.00151799 -0.00451422)
(0.000783726 -0.00150026 -0.0044938)
(-0.000743717 0.00151016 -0.00449528)
(0.000845535 -0.00151109 -0.0045059)
(-0.000635188 0.001561 -0.00447741)
(0.000968869 -0.00134183 -0.00440805)
(1.40705e-05 0.00128765 -0.00419331)
(0.00121679 -0.000644101 -0.00344388)
(0.000857876 0.00126559 -0.00391799)
(-0.000342127 0.00158842 -0.00399237)
(0.000961509 0.000793438 -0.00412103)
(-5.52389e-05 0.000859219 -0.00290278)
(-0.000911925 0.0011723 -0.00383229)
(0.000917009 0.00097914 -0.00395499)
(-5.55134e-05 0.00101368 -0.00285072)
(-0.000975634 0.00109426 -0.00396082)
(0.000969618 0.00104326 -0.0039221)
(-3.3335e-05 0.00103316 -0.00289809)
(-0.00103697 0.0010599 -0.00401571)
(0.000905665 0.00113233 -0.00379061)
(-2.28575e-05 0.00104935 -0.00285954)
(-0.00108686 0.00100192 -0.00392637)
(-0.00107227 0.00125696 -0.00439788)
(-0.00155714 0.00060836 -0.00315488)
(-0.000486525 0.000681151 -0.00429406)
(0.00104396 -0.00224449 -0.00403305)
(-6.65472e-05 -0.000122428 -0.00378046)
(-0.00172377 -0.00129868 -0.0038343)
(-4.896e-05 0.000682772 -0.0045494)
(0.00164742 -0.00170311 -0.00377482)
(-1.97401e-05 -9.68801e-05 -0.00381985)
(-0.00164616 -0.00148018 -0.0038383)
(-7.07888e-06 0.000693283 -0.00460483)
(0.00160437 -0.00167486 -0.00382568)
(-9.26122e-06 -8.6497e-05 -0.0038214)
(-0.00161693 -0.0014692 -0.00374365)
(-5.83748e-07 0.000696073 -0.00460161)
(0.00157978 -0.00173321 -0.00395431)
(2.00579e-05 -0.000111433 -0.0038032)
(-0.0016013 -0.0014209 -0.00355553)
(6.89916e-05 0.000702561 -0.00449244)
(0.00131134 -0.00190685 -0.00419812)
(5.21586e-05 6.70708e-05 -0.00315026)
(-0.00139911 0.0016746 -0.00490803)
(0.00158526 0.000932742 -0.00467434)
(-0.00164072 0.0013031 -0.00460788)
(0.00157944 0.000973363 -0.00465679)
(-0.00160841 0.0012328 -0.00463414)
(0.00161158 0.00102869 -0.00463175)
(-0.00160819 0.00122737 -0.00461545)
(0.0018308 0.00104217 -0.00467569)
(-0.00131912 0.00144189 -0.00442726)
(0.000646282 0.000131211 -0.00421196)
(-0.000854375 0.00048518 -0.00323846)
(-0.00055258 0.000733181 -0.00335681)
(0.000958961 0.00122017 -0.00453641)
(9.95835e-05 -0.000103776 -0.003093)
(-0.000543007 -0.000509514 -0.00411282)
(0.000635467 0.000145107 -0.00555263)
(-0.00171118 0.000285318 -0.00339288)
(-0.000645256 0.000528887 -0.00347791)
(0.00203875 6.07268e-05 -0.00312485)
(-8.76562e-05 0.000138438 -0.00395117)
(3.80915e-05 2.55643e-05 -0.00352967)
(7.0247e-05 4.0253e-06 -0.00372412)
(0.000317631 4.7273e-06 -0.00369475)
(0.00146083 0.00177429 -0.00448665)
(-0.000339461 -0.000947619 -0.0038872)
(-4.12578e-05 2.85518e-05 -0.00387279)
(-0.000167221 0.000955398 -0.00394297)
(0.000655203 2.59451e-05 -0.00565107)
(-0.00151732 -2.5063e-05 -0.00330207)
(-0.00151891 0.000130507 -0.00332984)
(0.0033927 2.55386e-05 -0.00317587)
(-0.000164398 0.00101162 -0.00397283)
(0.00112678 -0.00172987 -0.00443389)
(0.00183407 0.00154799 -0.00482342)
(-2.25721e-05 2.09074e-05 -0.00375849)
(1.1115e-05 -2.9624e-05 -0.00398721)
(1.51492e-05 -5.51707e-06 -0.00399431)
(9.17916e-06 -9.04461e-07 -0.00397713)
(4.49378e-06 1.66254e-06 -0.00397879)
(1.78398e-06 1.88744e-06 -0.00397683)
(-4.73874e-07 2.30949e-06 -0.00397261)
(-4.67986e-06 5.25597e-06 -0.00396583)
(-1.14897e-05 1.05399e-05 -0.00397788)
(1.80989e-05 -1.7903e-05 -0.0045791)
(-6.09572e-06 4.6874e-06 -0.00453433)
(-0.000532496 0.000545082 -0.00317319)
(-0.000525409 -0.000224226 -0.00343853)
(5.56457e-05 -7.70556e-05 -0.00458016)
(0.000334908 -0.000420734 -0.00378971)
(1.90277e-05 0.00051741 -0.00335914)
(0.000510906 -0.000287994 -0.00408567)
(-0.000611085 -0.000561175 -0.00402841)
(-4.57769e-05 -0.00076763 -0.00567537)
(-0.000140736 -0.000867448 -0.00422769)
(0.000947375 -3.49511e-05 -0.00555734)
(0.000779299 0.00063579 -0.00399011)
(0.000216719 -0.000479785 -0.00416642)
(0.000609303 4.49462e-05 -0.00546185)
(0.000393875 0.000523979 -0.0039732)
(0.000299519 -0.000521906 -0.00407772)
(0.000654164 2.19858e-05 -0.00551111)
(0.000330293 0.000544707 -0.00403476)
(0.00035435 -0.000558512 -0.00400179)
(0.000665556 -1.76396e-05 -0.00553632)
(0.000289159 0.000508723 -0.00409183)
(0.000557638 -0.000610235 -0.00402664)
(0.000756583 -4.85819e-05 -0.00568435)
(0.00085768 -0.000140831 -0.00423081)
(3.68535e-05 0.000934289 -0.00555774)
(-0.000628653 0.000774011 -0.00400003)
(3.46712e-05 -0.000507237 -0.0033706)
(0.00041882 0.000336352 -0.00379009)
(-0.000507349 0.000261455 -0.00339041)
(-0.000544312 -0.000534721 -0.00317909)
(7.78381e-05 5.76518e-05 -0.00458071)
(0.000224942 -0.00052393 -0.00343868)
(0.000123783 0.000410999 -0.00341452)
(-0.000425998 0.000422366 -0.00313689)
(-0.000468202 -0.000465712 -0.00315755)
(8.76297e-05 -7.03726e-06 -0.00457165)
(0.000139489 -0.00043459 -0.00341919)
(0.00016811 0.000436188 -0.00340597)
(-0.000462019 0.000470816 -0.00313867)
(-0.000438366 -0.000422967 -0.00316513)
(8.83576e-05 -1.42771e-06 -0.00457046)
(9.17124e-05 -0.000404307 -0.00342605)
(0.000266161 0.000513234 -0.0033888)
(-0.00050708 -3.34821e-05 -0.00336941)
(0.000661673 -2.53378e-05 -0.00445086)
(-0.00142631 0.00161286 -0.00354835)
(-0.00191183 -0.00126411 -0.00420608)
(0.0016479 0.00139783 -0.0048914)
(-0.00192989 -0.0014846 -0.00478149)
(-8.08035e-05 5.01332e-05 -0.00303322)
(-0.00132775 -0.00095792 -0.0044288)
(1.07455e-05 -2.05272e-05 -0.00314514)
(0.00129435 -8.76113e-06 -0.00426004)
(-0.000310841 -0.000179317 -0.00291677)
(0.00154263 0.000462726 -0.00394457)
(0.000764696 -0.000925909 -0.00407594)
(0.00114029 0.000921192 -0.00378617)
(-0.00170893 -0.00154643 -0.00392078)
(0.00066684 3.52522e-06 -0.00455065)
(-0.00147248 0.0015795 -0.00374323)
(0.000979691 -0.00156054 -0.00461034)
(0.00127726 0.0016247 -0.00457809)
(-0.00156236 -0.00166062 -0.00442193)
(3.5078e-05 6.899e-06 -0.00369539)
(-0.0013283 0.00163596 -0.00441425)
(0.00116931 -0.00167637 -0.00451899)
(0.0014555 0.00173869 -0.0045283)
(-0.00154709 -0.00173377 -0.00448802)
(-9.53129e-06 6.44308e-06 -0.0037545)
(-0.00129667 0.00169525 -0.00449315)
(0.0012344 -0.0017073 -0.00450835)
(0.00150806 0.00176231 -0.00451406)
(-0.00154604 -0.00175554 -0.00450029)
(-2.94258e-06 3.94758e-06 -0.00376992)
(-0.0012901 0.00171463 -0.0045044)
(0.00125712 -0.00171953 -0.00451125)
(0.00152671 0.00177138 -0.00451517)
(-0.001556 -0.00176452 -0.00450363)
(3.88047e-07 3.32299e-06 -0.00377803)
(-0.00129898 0.00172396 -0.00450938)
(0.00125609 -0.00173022 -0.00451716)
(0.001531 0.00178192 -0.00452314)
(-0.00157997 -0.00176911 -0.00450222)
(1.94076e-06 4.32605e-06 -0.00378548)
(-0.00132235 0.00172884 -0.00451138)
(0.00123686 -0.00174259 -0.00452583)
(0.00152433 0.00179547 -0.00453601)
(-0.00161624 -0.00176661 -0.00449733)
(4.3024e-06 5.70787e-06 -0.00379171)
(-0.00135194 0.00172392 -0.00451041)
(0.00119846 -0.00174942 -0.00452877)
(0.00150474 0.00180208 -0.0045442)
(-0.00164554 -0.0017321 -0.00449552)
(9.95029e-06 7.35016e-06 -0.00378358)
(-0.00136032 0.00168247 -0.00451413)
(0.00112677 -0.00173313 -0.00445382)
(0.00140664 0.0017476 -0.00446851)
(-0.00030689 -0.000947483 -0.00393411)
(0.000625953 -4.25372e-06 -0.00565422)
(-0.00150614 -6.99721e-05 -0.00330335)
(-0.00153593 2.9155e-05 -0.00329165)
(0.00341352 -2.818e-05 -0.00318683)
(-0.000117429 -1.72989e-06 -0.00448809)
(-0.00012865 1.11055e-05 -0.00447579)
(7.86022e-05 1.47272e-05 -0.00372443)
(0.000342843 7.65477e-08 -0.00369576)
(0.0014514 0.00177816 -0.00447287)
(-0.000267924 -0.000943147 -0.00391807)
(-2.64132e-05 7.97722e-06 -0.00382538)
(-0.000298739 0.00112441 -0.00396801)
(0.00059628 -0.000152815 -0.00563425)
(-0.00153457 -4.50095e-05 -0.00332098)
(-0.00150936 3.72174e-05 -0.00329101)
(0.00339397 -5.53693e-05 -0.00319269)
(-0.000198225 0.000952593 -0.0039198)
(0.00112707 -0.00175101 -0.00445921)
(-4.2526e-05 1.0176e-05 -0.00387133)
(1.87027e-05 7.80814e-06 -0.00391649)
(1.81726e-05 2.19226e-05 -0.00398739)
(1.16887e-05 1.41797e-05 -0.00397643)
(6.08299e-06 7.57043e-06 -0.00398052)
(2.64164e-06 3.40684e-06 -0.00397841)
(-4.01216e-09 2.41983e-07 -0.00397358)
(-4.32288e-06 -4.64882e-06 -0.00396623)
(-1.04376e-05 -1.17257e-05 -0.00397773)
(1.80618e-05 1.74578e-05 -0.0045789)
(-5.58328e-06 -6.27468e-06 -0.00453545)
(0.000423167 -0.000438802 -0.00315921)
(-0.000469695 -0.000467375 -0.00314943)
(0.000468047 -0.000467588 -0.00314698)
(-0.000425145 -0.000439816 -0.00315902)
(8.46838e-07 8.98721e-05 -0.0045699)
(0.000425599 0.000154865 -0.00340571)
(-0.000402251 9.76475e-05 -0.00342486)
(-2.26928e-06 -0.000590862 -0.00344576)
(-0.000506631 0.000309939 -0.00407669)
(2.79743e-07 -0.000626608 -0.00572693)
(-0.0004257 0.000155225 -0.00340667)
(-3.2158e-07 9.00483e-05 -0.00457008)
(0.000401208 9.78291e-05 -0.00342381)
(1.57865e-05 -0.000619269 -0.00569483)
(0.000473166 0.00021565 -0.00415399)
(-3.86302e-05 0.000592496 -0.00544347)
(-0.000511565 0.000382501 -0.00397037)
(1.67675e-06 -0.000590641 -0.0034466)
(0.000505911 0.000310568 -0.0040763)
(-5.26145e-07 0.000643185 -0.00544467)
(-9.38693e-08 0.000898046 -0.00290678)
(0.000896151 0.000948603 -0.00390518)
(-0.0015404 -0.00155384 -0.00374553)
(0.00153854 -0.00155031 -0.00374119)
(-0.00152176 -0.00166853 -0.00392196)
(0.00160205 0.00121055 -0.00457473)
(-0.00163927 -0.00150196 -0.00442269)
(0.0017146 0.00137863 -0.00452557)
(-0.0017098 -0.00147642 -0.00448812)
(0.00173749 0.00142843 -0.00451277)
(-0.00173075 -0.00147151 -0.00449982)
(0.00174641 0.00144693 -0.00451482)
(-0.00173973 -0.00147941 -0.00450332)
(0.00175699 0.00145165 -0.00452375)
(-0.00174421 -0.00150206 -0.00450187)
(0.00177086 0.00144663 -0.00453826)
(-0.00174191 -0.00153902 -0.00449596)
(0.00177916 0.00143302 -0.0045493)
(-0.00170934 -0.00157467 -0.00449088)
(0.00175483 0.00140428 -0.00449651)
(-0.000940609 -0.000308986 -0.00388365)
(1.98017e-05 0.00066716 -0.00565177)
(0.00094943 -0.000211714 -0.0039581)
(2.55919e-05 -3.64359e-05 -0.00387137)
(-0.00171191 0.00121576 -0.00444343)
(0.00166364 -0.0014501 -0.00452492)
(8.62885e-06 1.43187e-05 -0.00378552)
(-0.00172821 0.00129944 -0.00452731)
(0.00170222 -0.0014536 -0.00451595)
(5.85345e-06 6.62076e-06 -0.00379345)
(-0.00172124 0.00134167 -0.00452774)
(0.00170613 -0.00142674 -0.00451357)
(3.87533e-06 3.11896e-06 -0.00378671)
(-0.0017089 0.00136044 -0.00451989)
(0.0017009 -0.00140291 -0.00450975)
(2.68743e-06 8.20973e-07 -0.00377873)
(-0.00169828 0.00135983 -0.00451407)
(0.00169152 -0.00139221 -0.00450358)
(2.79757e-06 -3.11082e-06 -0.00377019)
(-0.0016864 0.00133578 -0.00451219)
(0.00167249 -0.00139468 -0.00449055)
(4.49237e-06 -1.02473e-05 -0.00375443)
(-0.00165669 0.00126678 -0.00452525)
(0.00161295 -0.00141807 -0.00440951)
(5.10729e-06 3.32509e-05 -0.00369437)
(-0.00154049 0.00106074 -0.00461661)
(9.06348e-07 -9.79695e-05 -0.00378676)
(0.00153996 0.00105981 -0.00461144)
(-0.00161395 -0.00142037 -0.00441448)
(-7.24079e-06 3.33137e-05 -0.0036944)
(-0.00159967 0.00121688 -0.00457941)
(0.00151945 -0.00165892 -0.00392101)
(-2.84963e-06 0.0006658 -0.00454962)
(-0.000903786 0.00110086 -0.00377794)
(-5.87131e-05 0.00082274 -0.00294222)
(0.000919345 0.000770131 -0.0040847)
(-0.00159525 -0.0014635 -0.0035543)
(0.00154045 0.000960181 -0.00463132)
(-0.00162237 -0.00136628 -0.00443165)
(0.00163007 0.00120858 -0.00451696)
(-0.0016596 -0.00133928 -0.00451428)
(0.0016582 0.0012838 -0.00451015)
(-0.00166635 -0.00133614 -0.00451654)
(0.00167129 0.0013086 -0.00451814)
(-0.00166959 -0.00134766 -0.00451569)
(0.00168685 0.00131185 -0.00452964)
(-0.00167062 -0.00137697 -0.00451194)
(0.00171001 0.00130318 -0.00455161)
(-0.00165944 -0.00141213 -0.00449076)
(0.00173314 0.0012823 -0.00457889)
(-0.00160288 -0.00140012 -0.00444857)
(0.00172189 0.00122375 -0.00450789)
(-0.000926894 -0.000201642 -0.00390485)
(-0.00019906 0.000482857 -0.00556947)
(0.000403098 -0.000551999 -0.00412244)
(5.08523e-05 -1.00905e-05 -0.00373023)
(-0.00159818 0.00167755 -0.00478474)
(0.00143771 -0.00205138 -0.0048582)
(2.014e-05 3.56359e-05 -0.00366312)
(-0.00157313 0.00184131 -0.00486511)
(0.00151986 -0.0020027 -0.0048434)
(2.88234e-06 1.80006e-05 -0.00367292)
(-0.00152392 0.00187372 -0.00485691)
(0.0015171 -0.00192991 -0.00483298)
(-1.86935e-06 7.07026e-06 -0.00366244)
(-0.00150417 0.00187306 -0.00483957)
(0.00150529 -0.00189226 -0.00482635)
(-2.63528e-06 1.82284e-06 -0.00365361)
(-0.00149796 0.00187138 -0.00483288)
(0.00150142 -0.00188029 -0.00482599)
(-7.64407e-06 -3.53456e-06 -0.0036477)
(-0.00149275 0.00186715 -0.00483211)
(0.00150303 -0.00187906 -0.00482262)
(-1.93579e-05 -7.65214e-06 -0.00363816)
(-0.00147164 0.00183523 -0.00484925)
(0.00148273 -0.00189479 -0.00478316)
(-4.46871e-05 4.23321e-05 -0.00358621)
(-0.00136951 0.00163147 -0.00489066)
(0.00125391 -0.0018862 -0.00420525)
(2.70548e-05 0.000661862 -0.00444934)
(-0.000454381 0.00153769 -0.00394316)
(0.000773414 0.00136646 -0.00416593)
(0.00127178 -0.000686086 -0.00363461)
(4.05441e-05 0.00130284 -0.00427391)
(0.000158309 -0.000309231 -0.00290849)
(-0.000232469 0.000245537 -0.00331955)
(0.0006507 0.00156106 -0.00377598)
(-0.00200709 -0.00135101 -0.00346633)
(0.00152309 0.00126062 -0.00473935)
(-0.00191009 -0.00118695 -0.00461605)
(-0.00128621 0.00190125 -0.00444704)
(-0.00159031 -0.00167391 -0.00441705)
(4.13865e-05 -1.32337e-05 -0.00368529)
(0.00104713 -0.00187315 -0.00458048)
(0.00115817 0.00159776 -0.00464705)
(-0.00166725 -0.00163435 -0.00360786)
(0.000644775 4.80469e-05 -0.00456902)
(-0.00149628 0.00172077 -0.00401324)
(-0.000111212 7.68497e-05 -0.00381697)
(8.01887e-05 3.33483e-05 -0.00375195)
(-0.000605652 -0.000486945 -0.00552975)
(5.18275e-05 4.77563e-05 -0.00446196)
(-2.44452e-05 -3.9095e-05 -0.00423025)
(-0.000642556 2.55573e-05 -0.00567745)
(6.55353e-05 -9.32366e-06 -0.00407021)
(-0.000103788 -3.33098e-06 -0.00379447)
(-0.00151815 0.00157319 -0.00387509)
(-0.00164651 -0.00157626 -0.00376608)
(0.00118805 0.00157753 -0.00461633)
(-0.00154076 -0.00164014 -0.00440943)
(1.97542e-05 2.66419e-07 -0.00373437)
(0.001406 0.00169239 -0.00452846)
(-0.00153293 -0.0017036 -0.00449051)
(0.00148078 0.00172357 -0.00451459)
(-0.00153506 -0.0017236 -0.00450372)
(1.07689e-05 1.19835e-06 -0.00371644)
(0.00150914 0.00173738 -0.00451776)
(-0.00154758 -0.00173153 -0.00450738)
(0.00151538 0.00175106 -0.00452674)
(-0.00157341 -0.00173363 -0.00450564)
(5.87114e-05 1.4194e-06 -0.00371271)
(0.001506 0.00176667 -0.00453996)
(-0.00160399 -0.00172523 -0.00449876)
(0.00147718 0.00177316 -0.0045458)
(-0.00161033 -0.00168335 -0.00449851)
(0.00033264 -2.72647e-06 -0.00369975)
(7.76932e-05 2.30077e-06 -0.00372842)
(4.97538e-05 3.80254e-06 -0.00372985)
(5.23641e-05 1.26914e-05 -0.00373022)
(2.51195e-05 7.13185e-06 -0.00373341)
(6.16939e-05 4.63285e-06 -0.00371958)
(0.00155666 0.00178259 -0.00455457)
(-0.00164592 -0.00172269 -0.00449914)
(1.29724e-05 9.1184e-06 -0.00378615)
(-0.001335 0.0020373 -0.00453793)
(0.00110052 -0.00201353 -0.00449517)
(0.00153424 0.00180373 -0.00457014)
(-0.00161626 -0.00166633 -0.00447476)
(2.91976e-05 1.7502e-05 -0.00377084)
(-0.00141906 0.00202407 -0.0045598)
(0.000987129 -0.00192474 -0.00438062)
(0.00197289 0.00122672 -0.00487766)
(-0.00023196 -0.000853809 -0.00374669)
(3.74737e-05 -0.00136479 -0.00552397)
(-0.00164695 -9.27702e-05 -0.00335764)
(-0.00151987 -2.0903e-05 -0.00321257)
(0.00321244 -0.000493309 -0.00326601)
(-0.000199461 -0.000126768 -0.00432084)
(5.33736e-05 3.81495e-05 -0.00350437)
(8.98409e-05 0.000906997 -0.00311974)
(-0.00097931 0.00118355 -0.00455793)
(0.000223994 9.43356e-05 -0.00305195)
(0.000769197 -0.00192685 -0.00438639)
(-0.000796143 0.00146343 -0.00454636)
(6.54261e-05 1.45134e-05 -0.00304482)
(0.000824947 -0.00163259 -0.00447531)
(-0.000748255 0.0014917 -0.00451634)
(1.04034e-05 -3.2838e-06 -0.00303494)
(0.000802466 -0.00153488 -0.00450661)
(-0.000767228 0.00150983 -0.0045142)
(-1.37834e-06 6.42955e-07 -0.0030309)
(0.000766891 -0.00148154 -0.00448984)
(-0.000744211 0.00150362 -0.00448286)
(-1.98096e-05 -1.06277e-05 -0.00303093)
(0.000797807 -0.00147955 -0.00450449)
(-0.000719446 0.00156139 -0.00447995)
(-4.87657e-05 -2.67427e-05 -0.00303477)
(0.000841023 -0.00141038 -0.00449277)
(-0.000565866 0.00159378 -0.00444519)
(-8.15781e-05 -0.000100208 -0.00303137)
(0.000994038 -0.00125795 -0.00445148)
(0.000377459 0.000408296 -0.00341107)
(0.000279146 0.000613893 -0.00328877)
(-7.33839e-05 -0.000757096 -0.00409732)
(-3.81897e-05 6.36911e-06 -0.00357747)
(0.000391411 0.00123686 -0.00398719)
(-0.000172093 -0.00105294 -0.0041355)
(0.00176322 0.00123578 -0.00461113)
(-0.00188421 -0.00120841 -0.00466012)
(0.00184178 0.00122736 -0.00461926)
(-0.00188116 -0.00121476 -0.00464763)
(-0.00121789 0.00197656 -0.00450703)
(-0.00157926 -0.00173249 -0.00451619)
(-3.55843e-06 -4.07019e-06 -0.00376229)
(0.00120513 -0.00198077 -0.00452225)
(0.00152056 0.00172614 -0.00451952)
(-0.00157729 -0.00172061 -0.00450803)
(-8.58561e-06 -1.03176e-05 -0.00374935)
(-0.00122215 0.00195784 -0.00449455)
(1.02704e-05 -6.57773e-08 -0.00372788)
(9.05864e-07 -4.40961e-06 -0.00352715)
(1.33268e-05 -2.87389e-06 -0.00353789)
(-1.27915e-06 -0.000113419 -0.00314535)
(2.61639e-05 2.55362e-05 -0.00366748)
(0.000101139 0.000158314 -0.00355995)
(9.35816e-05 0.000172005 -0.00341509)
(0.000169905 7.00564e-05 -0.00398129)
(-4.99239e-05 3.00453e-05 -0.00395241)
(2.675e-05 9.91125e-05 -0.00391067)
(0.000707834 7.02086e-05 -0.00394664)
(0.00112476 -9.03164e-05 -0.0030647)
(0.000938104 0.00146259 -0.00499401)
(0.000317107 0.000468907 -0.00276592)
(0.00142629 0.000102002 -0.00371304)
(0.000567714 0.000350067 -0.00394233)
(0.000266291 7.47178e-05 -0.00385314)
(7.95297e-05 2.24057e-05 -0.00387042)
(5.06662e-05 1.56313e-05 -0.00398303)
(-2.33352e-05 5.29462e-06 -0.00392305)
(-1.51101e-05 3.02136e-06 -0.00391322)
(1.43998e-05 4.07524e-06 -0.0039911)
(2.4048e-05 3.91901e-06 -0.00387201)
(-0.000223963 -0.00111136 -0.00413371)
(-3.39454e-06 1.15658e-06 -0.00363423)
(0.000258326 0.00113453 -0.00409154)
(-0.000238498 -0.00112194 -0.00410671)
(0.00186621 0.00122497 -0.00464069)
(-0.00189103 -0.00121886 -0.00463735)
(0.00187878 0.00123794 -0.00465637)
(-0.00192961 -0.00122211 -0.00462791)
(-0.00126566 0.00200942 -0.00452268)
(-0.00162066 -0.00173681 -0.00451425)
(4.66928e-06 3.26484e-06 -0.00377895)
(0.00119712 -0.00199329 -0.0045238)
(0.00156161 0.00175849 -0.00453554)
(-0.00159317 -0.00173717 -0.00451735)
(7.30931e-07 -1.98063e-07 -0.00377026)
(-0.0012311 0.00198961 -0.00451507)
(1.78329e-05 3.92341e-06 -0.00372334)
(7.91712e-06 3.98158e-06 -0.00353128)
(1.99476e-06 -4.79601e-07 -0.00352798)
(1.3523e-06 -1.14112e-05 -0.00313406)
(3.35772e-06 -5.84692e-06 -0.00365884)
(6.12621e-06 1.70805e-05 -0.00361889)
(9.69134e-06 1.23785e-05 -0.00346457)
(7.7564e-06 2.01893e-06 -0.0036563)
(2.09045e-05 5.34449e-05 -0.00353583)
(3.18223e-05 3.83216e-05 -0.00339487)
(0.000303654 0.0011586 -0.0040784)
(-5.25624e-06 5.60748e-06 -0.0036287)
(-1.99591e-06 -5.32681e-05 -0.00313575)
(-9.71861e-06 -4.4536e-06 -0.00395525)
(1.71182e-06 -7.77446e-05 -0.0039726)
(4.07701e-06 9.87399e-06 -0.00392738)
(-4.00418e-05 0.000769451 -0.00392626)
(9.30409e-05 0.00146937 -0.00370477)
(-0.00107213 0.00270103 -0.0035963)
(-2.65594e-06 0.000283042 -0.00357113)
(1.47631e-05 -4.0998e-05 -0.00313717)
(7.36902e-07 -1.90029e-05 -0.00391037)
(-1.45014e-05 -7.32163e-05 -0.00385943)
(0.00163954 -0.00149246 -0.00442021)
(-2.50878e-07 6.48563e-06 -0.00372872)
(-0.00171386 0.001389 -0.00452914)
(0.00165652 0.00126419 -0.00452117)
(-0.00167262 -0.0013954 -0.00449423)
(-5.87003e-06 -1.01634e-05 -0.00375507)
(0.0017123 -0.00147099 -0.00448682)
(5.37208e-08 1.08205e-05 -0.00371272)
(-0.00173722 0.00143735 -0.0045148)
(0.00168764 0.00133359 -0.00451021)
(-0.00169032 -0.00139151 -0.00450489)
(-2.43097e-06 -2.9593e-06 -0.00377119)
(0.00173493 -0.00147145 -0.00450088)
(1.02932e-06 9.34781e-06 -0.00370868)
(-0.00174553 0.00145098 -0.00451519)
(0.00170159 0.00135977 -0.00451543)
(-0.0016976 -0.00140165 -0.00450762)
(1.39149e-07 1.06958e-06 -0.00378022)
(0.00174621 -0.00148509 -0.00450723)
(1.93144e-06 2.50415e-05 -0.00370718)
(-0.00175538 0.00144804 -0.00452165)
(0.00171512 0.0013647 -0.00452591)
(-0.00169971 -0.0014264 -0.0045054)
(2.59807e-06 3.62052e-06 -0.00378874)
(0.0017541 -0.0015156 -0.00451044)
(1.61771e-06 7.06371e-05 -0.00370435)
(-0.00176792 0.00142607 -0.00452915)
(0.0017309 0.00135595 -0.00454228)
(-0.00169143 -0.00145927 -0.00449573)
(6.21089e-06 7.47144e-06 -0.0037954)
(0.00175346 -0.00155809 -0.00451328)
(-3.31812e-06 0.00017228 -0.00369857)
(-0.00177196 0.00137372 -0.00452329)
(0.00173899 0.00133556 -0.0045543)
(-0.00165071 -0.00147623 -0.00448841)
(9.84593e-06 1.56363e-05 -0.00378425)
(0.00171052 -0.00157449 -0.00452056)
(-1.50562e-05 0.000384834 -0.00368185)
(-0.00174041 0.00128672 -0.0044421)
(0.00171582 0.00128664 -0.00448476)
(-0.000941982 -0.000247482 -0.00392773)
(-1.13533e-06 -3.54067e-05 -0.00386443)
(0.000935395 -0.000286626 -0.00392838)
(-5.7401e-05 0.00338988 -0.00320651)
(-0.000119507 -0.00151494 -0.00330375)
(-0.000125404 -0.00154694 -0.0031749)
(-0.000131176 0.00250458 -0.00300736)
(-0.001642 0.000651195 -0.00430822)
(0.000409394 0.000270249 -0.00306811)
(0.000363934 -0.00233624 -0.00414059)
(-0.00013974 -0.00048181 -0.00340354)
(-0.000287958 -0.000282045 -0.00326126)
(-0.000143372 0.00119963 -0.00426011)
(-0.00187252 -0.00125235 -0.00436754)
(0.000394604 -2.18551e-05 -0.00367273)
(-0.000480049 2.62516e-05 -0.00387369)
(-0.000803649 -0.00015712 -0.00387366)
(-0.000293864 -0.000188933 -0.00390211)
(-0.000230644 -1.95161e-05 -0.00397973)
(-0.000241746 5.01439e-05 -0.00390271)
(-0.000103187 2.90608e-05 -0.00390757)
(-4.62019e-05 1.16801e-05 -0.00400151)
(7.82213e-06 -1.54968e-05 -0.00388874)
(-2.19613e-06 6.84008e-06 -0.00399694)
(-3.7678e-05 1.1164e-05 -0.00391031)
(-4.68759e-05 3.30318e-06 -0.00388219)
(-2.75878e-05 3.97971e-07 -0.00388961)
(-5.29785e-05 -2.95047e-06 -0.00390322)
(-0.000104654 -1.02125e-05 -0.00393511)
(1.83351e-05 -1.96416e-05 -0.00388678)
(0.000831276 -6.8156e-05 -0.00388983)
(0.000974696 -3.65202e-05 -0.00295956)
(0.000955888 0.000951124 -0.00404236)
(0.00110135 -0.000951497 -0.0035779)
(0.00136205 1.14665e-05 -0.00372111)
(0.00129674 6.14177e-06 -0.00373851)
(0.00101423 -0.000966462 -0.00381037)
(0.00102091 0.000952267 -0.00393722)
(0.000666103 -2.2469e-06 -0.00456122)
(-0.000592329 3.96075e-06 -0.00343863)
(0.000191216 -4.30318e-06 -0.00423687)
(-6.94989e-05 -7.21268e-05 -0.00418357)
(-4.86723e-05 -4.57049e-05 -0.00422868)
(0.000173559 0.000172686 -0.00429113)
(-0.000516417 1.87258e-05 -0.00336179)
(-1.40479e-06 0.00019872 -0.00422327)
(-8.1237e-07 -7.04734e-05 -0.0042384)
(-1.66896e-06 -8.64176e-05 -0.00421826)
(1.29996e-07 9.83173e-08 -0.00456552)
(-0.000326234 0.000318307 -0.00308523)
(-0.000371668 -0.000369995 -0.00310553)
(-0.000368341 0.000371482 -0.00310004)
(-0.000330225 -0.000317117 -0.00309511)
(0.00032737 -0.000321027 -0.00308517)
(-0.000277902 -0.000274434 -0.00307424)
(1.03118e-05 1.02381e-05 -0.00457268)
(0.00037004 0.000368383 -0.00309508)
(-0.000319322 0.00033152 -0.00309182)
(-0.000320621 -0.00033092 -0.0030929)
(1.02337e-05 -9.85719e-06 -0.00457293)
(0.000368682 -0.000371167 -0.00310024)
(-2.08928e-08 -1.42763e-08 -0.00459184)
(6.11214e-08 5.9259e-08 -0.00459755)
(1.64641e-07 2.35862e-05 -0.004588)
(1.82585e-07 6.68755e-05 -0.00407034)
(-9.73159e-06 5.98619e-05 -0.00406304)
(1.30869e-05 -0.000132729 -0.0037747)
(-6.6635e-06 2.57447e-06 -0.00372354)
(-3.65943e-06 6.3166e-07 -0.00371526)
(-4.43194e-07 3.84833e-06 -0.00371894)
(2.05302e-06 1.11494e-05 -0.00372233)
(5.09212e-06 2.72004e-05 -0.00372416)
(2.15402e-05 1.1724e-05 -0.0035322)
(1.58996e-05 9.57597e-05 -0.0031395)
(8.53192e-06 -7.5682e-05 -0.00365239)
(3.76819e-05 -8.62409e-06 -0.00361212)
(-1.06628e-05 5.41544e-05 -0.00345413)
(0.000225843 0.00119502 -0.00412048)
(-0.000322224 -0.001091 -0.00410105)
(0.00190948 0.00125949 -0.00470183)
(-0.00197143 -0.00124153 -0.00455919)
(0.00196311 0.00127393 -0.00480457)
(-4.07643e-05 -3.06777e-05 -0.00368593)
(-0.000576644 -0.00112962 -0.0039712)
(-8.62959e-05 3.26164e-05 -0.00338652)
(0.000158853 0.00126507 -0.00416233)
(-1.70242e-05 -4.71742e-06 -0.0036746)
(-3.78107e-05 -5.55215e-05 -0.00390089)
(-1.97184e-05 1.14313e-05 -0.00398149)
(-0.000110571 7.89213e-06 -0.00387524)
(-0.000231062 1.57008e-05 -0.00386852)
(-0.000460628 1.8587e-05 -0.00387715)
(-0.00105266 -1.33635e-05 -0.00402451)
(-0.00107626 -0.000187857 -0.00397187)
(-0.00268082 0.0006439 -0.00391197)
(-0.00126459 -0.000287324 -0.00371298)
(-0.00110567 -0.00123444 -0.00355619)
(-3.75523e-05 -0.000156587 -0.00359013)
(-0.00043591 -0.000148996 -0.00373454)
(0.000342843 -0.00243386 -0.0029478)
(-0.0021673 -0.000670999 -0.0032288)
(-0.00129517 8.55831e-05 -0.00436962)
(-0.000605901 -0.000981982 -0.00395727)
(0.000981638 0.000725975 -0.00414319)
(7.90867e-05 3.33937e-05 -0.00424776)
(5.12381e-05 4.11012e-05 -0.00281288)
(-0.00102638 0.000878773 -0.00351152)
(0.00108626 0.000737167 -0.00370361)
(6.40494e-06 0.000103288 -0.00437676)
(-0.000128493 -8.24222e-05 -0.00291511)
(-0.00112759 0.000977451 -0.00365801)
(0.00109149 0.000878434 -0.00372406)
(1.9125e-06 0.000111344 -0.00439786)
(-0.00014328 -9.93362e-05 -0.00292685)
(-0.00110043 0.000886956 -0.00361204)
(0.00108785 0.00100177 -0.00376782)
(9.36053e-06 0.000103781 -0.00438158)
(-0.000234844 -0.000228969 -0.00298212)
(-0.00104999 0.00073571 -0.00356875)
(0.00077564 0.00102295 -0.00398868)
(-0.000618175 -0.000354461 -0.0054493)
(0.000506479 0.000533588 -0.0040687)
(0.000383947 -0.000465172 -0.00397026)
(0.00113333 0.000497203 -0.00499199)
(-0.000532529 -0.00196319 -0.00483919)
(-0.000308177 -0.00106623 -0.00394058)
(0.000168389 0.000192704 -0.0029813)
(0.00068214 -0.00048453 -0.00429425)
(-0.00223114 0.00105513 -0.00403612)
(-0.000124189 -6.36184e-05 -0.00377856)
(-0.00130632 -0.00172954 -0.00382632)
(0.00113867 0.000912875 -0.00379818)
(0.00104911 -1.82143e-05 -0.00286084)
(0.0010011 -0.00108405 -0.00391943)
(0.00125682 -0.00107167 -0.00439984)
(0.000607579 -0.00155798 -0.00315397)
(0.00013787 0.000655082 -0.00421477)
(0.000485495 -0.000856628 -0.00324028)
(0.000734085 -0.000548625 -0.00335977)
(0.00121281 0.000952788 -0.00453798)
(-0.000564387 -0.00197524 -0.00430353)
(0.000116521 -0.000221768 -0.003483)
(0.000899102 0.00138896 -0.00456326)
(-0.000773347 -0.00170882 -0.00442846)
(9.15227e-07 -4.40293e-05 -0.00357317)
(0.000786073 0.00148674 -0.00453116)
(-0.000796334 -0.00156357 -0.0044797)
(-9.97185e-06 3.19839e-06 -0.00358008)
(0.000762026 0.00149735 -0.00451294)
(-0.000778016 -0.00150613 -0.00449124)
(-5.83797e-06 7.54281e-06 -0.00358361)
(0.00075676 0.00148955 -0.00450088)
(-0.000769331 -0.00149013 -0.00449305)
(-5.11873e-06 8.30265e-06 -0.00357884)
(0.000753899 0.0014877 -0.00449651)
(-0.000773872 -0.0014858 -0.00449089)
(-1.0821e-05 2.27962e-05 -0.00358388)
(0.000728104 0.00149485 -0.0044866)
(-0.000816662 -0.00147573 -0.00449158)
(-6.4408e-05 9.13741e-05 -0.00352273)
(0.000617997 0.00154145 -0.00447063)
(-0.000945492 -0.00132196 -0.00442596)
(-0.00035214 0.000371939 -0.00343367)
(-1.52388e-05 0.00128224 -0.00426181)
(-0.00127353 -0.000715948 -0.00361602)
(-0.000788541 0.00136044 -0.00416074)
(0.000460017 0.00153651 -0.00393849)
(-0.00125479 -0.00190534 -0.00420382)
(0.00138829 0.00162615 -0.00489221)
(-0.00147365 -0.00191266 -0.00478032)
(4.13608e-05 4.40448e-05 -0.00358621)
(-0.00154412 0.000957078 -0.00464004)
(0.00159273 -0.00146418 -0.00354694)
(-2.42134e-05 0.000661138 -0.00445129)
(-0.000918402 0.00076643 -0.00408301)
(5.86382e-05 0.000829693 -0.00294283)
(0.000905142 0.00110076 -0.00377313)
(-0.00089542 0.000946707 -0.00390783)
(3.16465e-06 0.00066532 -0.00455066)
(5.27892e-06 0.0012818 -0.00372684)
(1.55283e-06 0.00076332 -0.00391478)
(1.24835e-06 -6.44708e-06 -0.00392013)
(1.92879e-06 -0.000111384 -0.00396182)
(1.79125e-06 -6.25961e-05 -0.00392803)
(6.21143e-07 -3.93556e-05 -0.00393813)
(1.3429e-06 -2.39715e-05 -0.00392666)
(3.5136e-06 -4.64987e-05 -0.00392062)
(4.96314e-06 -2.46524e-05 -0.00365953)
(1.52702e-05 6.68746e-06 -0.00355174)
(2.19741e-06 2.4468e-05 -0.0034088)
(0.000245004 0.00114033 -0.00413113)
(-0.000257625 -0.0011056 -0.00413558)
(-7.38026e-06 -3.49246e-08 -0.00365071)
(-1.7958e-06 1.87766e-06 -0.0036384)
(1.06441e-05 3.20918e-07 -0.00387861)
(1.32924e-06 1.33e-07 -0.00394416)
(0.00120571 -0.00198455 -0.00451925)