/*--------------------------------*- C++ -*----------------------------------*\
| =========                 |                                                 |
| \\      /  F ield         | OpenFOAM: The Open Source CFD Toolbox           |
|  \\    /   O peration     | Version:  2306                                  |
|   \\  /    A nd           | Website:  www.openfoam.com                      |
|    \\/     M anipulation  |                                                 |
\*---------------------------------------------------------------------------*/
FoamFile
{
    version     2.0;
    format      ascii;
    arch        "LSB;label=32;scalar=64";
    class       volScalarField;
    location    "1.3";
    object      gradTy;
}
// * * * * * * * * * * * * * * * * * * * * * * * * * * * * * * * * * * * * * //

dimensions      [0 -1 0 1 0 0 0];

internalField   nonuniform List<scalar> 
5322
(
0.0448557
0.00572698
0.00180064
0.00111774
0.00154184
0.00143937
0.00107447
0.000715334
0.000444563
0.00025038
8.1715e-05
-0.000162411
-0.000143593
-0.000135365
-0.000128518
0.000312335
0.00040383
-7.03216e-06
0.000357612
-0.000626729
0.000778385
-0.00120009
0.00152688
-0.00229795
0.0029234
-0.00404799
0.00499959
-0.00691833
0.00834752
-0.0107315
0.0126765
-0.0158603
0.0187692
-0.0192931
0.020248
-0.0119974
0.0242858
0.0293174
0.0148848
0.0169018
0.0216725
0.0182387
0.0197332
0.0202646
0.0193309
0.0201202
0.0196412
0.0209981
0.0204918
0.0186833
0.0236327
0.0102822
0.0122363
-0.0369314
-0.00172077
-0.0211478
0.0118419
-0.0274806
-0.00121776
-0.0238684
0.0120154
-0.0269938
-0.0010802
-0.0236961
0.0120724
-0.0280228
-0.00152453
-0.0230202
0.0122704
-0.0314249
0.000882457
0.0234003
0.0129616
0.0182046
0.0135111
0.017197
0.01429
0.0171558
0.014612
0.0206007
0.0013845
0.00845359
0.0122342
0.0191465
-0.00112256
-0.00653281
0.00263151
0.00493782
0.011048
0.00168692
0.0029823
0.000512678
6.62596e-05
5.97695e-05
0.022106
-0.013114
0.000435374
0.0132581
0.000423685
-0.000838006
0.00264712
0.000453547
0.0142299
-0.0214871
0.0192931
0.000530998
-0.000461328
-5.19608e-05
1.50885e-05
4.20768e-05
3.65924e-05
2.5564e-05
1.64964e-05
9.51515e-06
2.37493e-06
2.93872e-06
0.000113795
-3.80174e-05
-1.99791e-05
-7.7149e-05
0.000100315
-4.22594e-05
-9.01461e-05
-0.000129375
-0.000143087
-5.02707e-06
0.000110165
-8.00418e-05
8.48976e-06
8.97032e-05
-8.84719e-05
3.99011e-06
9.27546e-05
-9.5498e-05
-3.5639e-06
8.56495e-05
-0.000103963
-9.09778e-06
-2.99714e-05
0.0001607
0.000129317
-9.72885e-05
6.13689e-05
4.75038e-05
-0.000110687
1.7213e-05
-0.000102618
7.83802e-05
8.45061e-05
-9.46912e-05
-1.42962e-06
-8.34175e-05
8.49969e-05
9.70209e-05
-8.30958e-05
1.99523e-07
-7.54722e-05
0.000101684
-2.04234e-06
8.82077e-07
0.000351472
-0.000269016
0.000395443
-0.000575863
3.24283e-05
-0.000238622
1.27901e-05
3.20424e-05
-2.27028e-05
8.54913e-05
-0.000168922
0.000170271
-0.00033436
1.86499e-06
0.000344471
-0.000448088
0.000467463
-0.000650287
4.58978e-06
0.000645332
-0.000924497
0.00096153
-0.00133366
8.25557e-06
0.00131315
-0.00183517
0.00190322
-0.00257984
1.36541e-05
0.00253802
-0.0034306
0.00355305
-0.00466962
2.32461e-05
0.00459261
-0.00601766
0.00622763
-0.00790393
3.98186e-05
0.00776342
-0.00990313
0.0102396
-0.0124821
6.19625e-05
0.0122147
-0.0152188
0.0157065
-0.0180944
9.27975e-05
0.0175888
-0.0215568
0.0217292
-0.0131635
-0.000102285
-0.00161935
0.000824713
-0.000471069
-2.28979e-05
0.000114099
0.000192767
1.7444e-05
0.0221287
-0.0131071
5.29901e-05
0.0157892
-0.00250949
-0.00117211
0.0010285
-0.000925683
0.013167
-0.0217995
0.000137595
9.40215e-05
0.00027113
0.000136824
4.94072e-05
9.97316e-06
-3.57647e-06
-6.70795e-06
-5.51679e-06
-4.62973e-07
-2.27924e-06
-8.97917e-05
-9.71304e-05
-9.7607e-05
-8.95138e-05
2.53676e-05
2.48995e-05
1.18906e-05
-0.000113845
4.73837e-05
-0.000109046
2.45608e-05
2.54296e-05
1.23325e-05
-0.000107643
3.13903e-05
0.000100361
6.03017e-05
-0.000113921
4.76281e-05
0.000109145
0.000153324
0.000170764
-0.000341574
-0.000341394
-0.000365156
0.0003533
-0.000583511
0.000761731
-0.00113144
0.00153437
-0.00215559
0.00288912
-0.00390471
0.00506848
-0.00669611
0.0082857
-0.0108491
0.0126323
-0.0163879
0.017746
-0.00297881
0.0117445
-0.00162889
0.000617103
0.0153688
-0.0150763
0.00100407
0.0114516
-0.010255
0.000660338
0.00767238
-0.00637451
0.000427316
0.00473825
-0.00371451
0.000264679
0.00270734
-0.00204689
0.000152867
0.00143102
-0.00107287
8.20832e-05
0.000699077
-0.000553062
6.13881e-05
0.000310073
-3.25547e-05
0.000310308
-0.000552431
6.14618e-05
0.000354648
-0.000363991
0.000131585
0.000199418
0.000139776
0.000137756
-0.000319325
0.000280884
-0.000522816
0.000670432
-0.0010124
0.00138951
-0.00193838
0.00263824
-0.00353171
0.00463156
-0.00610624
0.00756912
-0.00992419
0.0115068
-0.0145481
0.0156548
-0.00153839
0.00885205
-0.00634888
0.000949729
0.0217009
-0.0212137
0.00123314
0.016694
-0.0139424
0.000748744
0.0110338
-0.00844511
0.000452817
0.00672864
-0.00487727
0.000273806
0.00385164
-0.00267393
0.000156461
0.00206609
-0.00138833
8.51556e-05
0.00103728
-0.000707804
6.42015e-05
0.00047612
-0.000398667
0.000129551
0.000279166
0.0002402
-0.000119265
0.000299834
-6.64762e-05
3.01703e-05
0.000325023
-0.000289058
0.000349524
-0.000461249
0.000737916
-0.00065849
-8.15078e-06
-0.00053626
0.000458273
-0.0003573
6.58736e-06
0.00036692
1.27978e-05
-3.04378e-06
-9.07044e-05
7.68358e-06
-7.16704e-06
4.64679e-06
-3.91997e-06
-2.38282e-06
0.000342116
-0.000343297
0.000455129
-0.000644909
1.66197e-06
0.000938985
-0.0013132
0.00186527
-0.00253656
1.0562e-05
0.00349128
-0.00458552
0.00613342
-0.00774461
2.9261e-05
0.0100998
-0.0121831
0.0154744
-0.0175888
-3.39552e-05
3.09205e-05
4.98559e-05
0.000143699
6.74331e-05
7.42569e-05
0.0102163
-0.0121861
5.20288e-05
0.0145025
-0.0177061
0.0158039
-0.0174275
0.000157076
0.0213076
-0.0242142
0.0156013
-0.0121149
-0.0234044
-0.00185803
9.75285e-05
-0.00837897
-0.00228266
0.000279507
0.0114329
0.0137545
0.000845521
-0.0172615
0.0110208
-6.71741e-05
-0.00926094
0.00696292
-0.000157713
-0.00524351
0.00413726
-0.000100765
-0.00286339
0.00228344
-7.75854e-05
-0.00152208
0.00122948
-5.3262e-05
-0.000729088
0.000633683
-4.96973e-05
-0.000339181
6.55191e-05
0.000119989
-0.000230277
-2.62173e-05
0.000439839
-0.000602031
0.000668203
-0.000931645
0.00131372
-0.00179743
0.00290193
-0.00255749
-1.70887e-05
-0.0021439
0.00186268
-0.0013287
-1.38095e-05
0.00149855
8.33439e-06
-4.17765e-05
-2.10737e-05
-3.69549e-05
-0.000151457
-2.50801e-05
8.79823e-06
-6.59675e-06
3.65393e-05
2.8948e-05
1.12543e-05
-1.69189e-05
0.00026282
8.30611e-05
1.19647e-05
6.92479e-05
-2.13341e-05
-7.646e-05
-5.76946e-05
5.60917e-05
9.92198e-05
-0.000103838
-0.000156199
-0.0012342
-8.79924e-05
0.00157062
-0.002337
0.00245223
-0.00324821
0.00433632
-0.00550159
0.00902395
-0.00777771
-1.47342e-06
-0.0069896
0.00616298
-0.00461427
-1.6091e-05
0.00527866
4.66291e-05
-7.99863e-05
-6.39392e-05
3.70858e-05
-0.000581307
-0.000291962
-0.000206308
-0.000323538
-0.00014146
-0.000101925
0.000827841
-4.72682e-05
-1.84472e-05
0.000145854
-0.000238677
-7.73494e-05
0.000164938
0.000301888
0.000539404
1.0449e-05
-2.62982e-06
6.71926e-05
3.70576e-05
-0.000581257
-4.74071e-05
0.000766196
0.000699068
-0.0010702
8.23698e-05
-0.00113053
-9.7656e-05
0.00154179
0.00143259
-0.00204025
0.000153786
-0.00216294
-0.00016987
0.00289445
0.00271648
-0.00370285
0.000266947
-0.00393529
-0.000212918
0.00505414
0.00477204
-0.00636374
0.000433136
-0.00678469
-4.36103e-05
0.00817351
0.00778807
-0.0102924
0.000673845
-0.0110228
0.000905526
0.0121311
0.0118138
-0.0153651
0.00102689
-0.0164136
0.00420932
0.0162841
0.0162814
-0.00215229
0.000627077
-0.00266628
0.0550259
-0.0274577
-0.0284227
0.0412063
0.0108981
0.00374048
-0.0310002
-0.00745685
-0.00455705
0.0127313
-0.0133954
-0.00025928
0.000683443
-0.00273287
-0.00301924
-0.000652791
0.0007985
0.000408352
-0.000209044
-0.000478017
-0.000161878
0.000192872
5.13021e-05
2.28688e-05
8.66523e-06
3.93658e-08
-4.62359e-06
-1.63394e-05
-7.38276e-06
0.000174887
-0.000175337
3.97026e-07
1.10632e-06
-0.000179126
0.000176131
-6.29882e-07
4.97354e-07
-7.00107e-07
-1.32963e-05
-8.57742e-06
3.1714e-05
5.12654e-07
3.64159e-05
-1.30367e-05
-1.60936e-05
-1.38235e-06
6.17068e-05
-7.43965e-05
7.59724e-05
-6.01336e-05
-6.14041e-05
-4.99404e-05
3.22486e-06
7.57581e-05
6.55612e-05
-6.43071e-05
-1.95858e-06
-7.50983e-05
4.29363e-07
9.67491e-07
-1.11376e-07
-1.17032e-05
-1.19915e-05
-3.98773e-05
-4.12273e-05
-8.42401e-05
-0.00013754
-0.000181654
-0.000144873
-6.03915e-05
0.000678349
-0.001836
-0.000825125
-0.000287971
0.00519676
-0.00652576
0.00722784
-0.00889349
0.0112391
-0.000562543
-0.0106465
-0.000610959
0.00889187
-0.000294506
-0.00103729
0.000164549
0.000111713
0.000231169
0.000277927
-0.000262088
-0.00308995
0.0106546
-0.00516874
-0.0172537
-0.00278421
-0.00356105
-0.0423207
-0.012046
0.00157327
-0.0180502
0.0129843
0.000665039
0.000556365
0.0156766
0.0131159
0.00164965
-0.00151633
0.0171934
0.0154735
0.00174017
-0.00180795
0.0156573
0.0175961
0.00162616
-0.00403221
0.0130781
0.0177953
-0.00639381
0.0105104
-0.00910902
0.00975577
-0.0381687
-0.0205919
0.00322049
-0.00943816
0.017593
-0.00111358
-0.028437
0.0167024
-0.000305719
-0.0196749
-0.0196126
-0.0280962
0.0090144
-0.0145479
-0.00986891
0.0148642
-0.0250364
-0.00397099
0.0153732
-0.0148397
-0.00140033
0.0109257
-0.00873409
-0.000729135
0.00690708
-0.00510111
-0.000478938
0.00406702
-0.00287581
-0.000302173
0.00225789
-0.00153293
-0.000163888
0.00118764
-0.000773081
-5.5877e-05
0.000619492
-0.000358899
5.59756e-05
0.000297192
-0.000124066
0.000238279
0.000278151
-0.000402036
0.000475044
-0.000714898
6.48046e-05
0.000279851
-0.00031973
0.000129163
0.00013681
0.000140678
0.00019914
0.000170328
0.000131408
0.000262899
0.000164307
-8.18337e-05
-0.000245519
-0.000433274
-0.000435194
-0.000746412
-0.00129319
-0.00100633
-0.000497345
-0.000301957
0.00291021
-0.0039931
-0.000212647
-0.000140754
-0.000262719
2.22036e-05
-0.00399185
0.00349507
1.59434e-05
0.00258508
-0.00350423
1.82005e-05
0.004689
-0.00613821
4.26052e-05
0.00794969
-0.0100811
8.58277e-05
0.0125452
-0.0154331
0.00012165
0.0180297
0.000146667
0.000353685
5.37704e-06
-3.15315e-05
-7.08304e-05
1.04212e-05
2.50445e-05
1.73971e-05
9.21405e-06
3.76661e-06
1.13556e-06
4.22584e-07
1.47304e-06
4.80022e-06
-0.000171033
3.76357e-06
1.08629e-05
-1.20761e-06
-4.46405e-06
-8.99652e-06
-1.59739e-05
-3.06254e-05
-6.32874e-05
-0.000127244
-0.000172201
0.000721953
-0.000220303
-0.00057232
-0.000788394
0.0151829
-0.0162674
0.0188496
1.54821e-05
-0.00266245
0.00221119
0.00678607
1.90485e-05
-0.00612083
0.0057148
0.00582577
1.26088e-06
-0.00651213
0.00606741
0.00524546
-1.19572e-05
-0.00822655
0.00779531
0.00737101
-0.000165705
0.0106179
-0.0111675
0.0108948
-0.0116836
-0.00109379
-0.00573316
0.00809919
-0.000735483
-0.00782159
-0.000187083
-5.66563e-05
0.0268082
-8.44661e-05
-0.026984
0.0173132
-0.000623477
-0.0179107
0.017962
-0.000398958
-0.0188154
0.0271685
-0.000264733
-0.0271878
0.0231151
-0.0230439
0.0228814
-0.0234582
0.000119663
-0.0268819
0.0265924
-2.35202e-05
-0.0179653
-0.000699308
0.0181047
-0.0154783
7.67575e-05
0.0275698
0.0100175
0.0262367
0.0097657
-0.0108494
0.0156429
0.00220369
-0.0108286
0.0103998
0.000884321
-0.00763821
0.00665237
0.000568911
-0.0048454
0.00411831
0.000357505
-0.00285513
0.00233049
0.000226834
-0.00158745
0.0012728
0.000106084
-0.000829583
0.000614385
1.53698e-05
-0.000443055
0.000247701
-0.000113193
-0.000324917
-8.32712e-05
-0.000261933
0.00017632
1.70626e-05
9.16551e-06
0.000104059
3.05405e-05
-0.000161256
-0.000129
-3.09897e-05
-0.000101388
-6.10711e-05
-4.58827e-05
-0.000112665
-5.06841e-05
-5.43698e-05
-0.000111627
-0.000164757
-0.00018035
-0.000129958
0.000364142
3.28207e-05
-0.000282887
-5.9571e-05
0.000518821
0.000609995
4.53189e-05
-0.000637181
-8.15461e-05
0.000977563
0.00141554
-5.54444e-06
-0.00207645
6.93994e-05
0.00270668
-3.13021e-05
-0.0038691
0.000122495
0.0048766
-6.12846e-05
-0.00674947
0.000147445
0.00822279
-9.91273e-05
-0.0110126
0.000218122
0.0129467
-0.000187706
-0.0168553
0.000122514
0.018832
-0.000476691
-0.0242403
-0.000586473
0.000656799
-0.0146278
0.0238955
0.000132809
0.0130197
0.00041466
-0.0104319
0.0171392
-4.42958e-05
0.00867433
0.000321239
-0.00689312
0.0113172
-3.34353e-05
0.00548877
0.000227277
-0.00422093
0.00697216
-1.59297e-05
0.00324971
0.00015886
-0.00242759
0.00401313
-7.65379e-06
0.00180705
9.47061e-05
-0.00130284
0.00216333
-2.82949e-06
0.000936156
5.40299e-05
-0.000666937
0.00109981
-3.06884e-06
0.000467341
2.84902e-05
-0.000348961
0.000542294
-1.16014e-05
0.000290732
-2.91077e-05
6.69937e-05
-0.00027833
-0.00023745
0.000122835
-0.000299067
-5.77138e-05
-3.25507e-06
-0.000538885
-0.000301683
-0.000264417
-0.000164537
-0.00013047
0.00032559
0.000374486
3.89662e-05
-0.000267653
-6.2961e-05
0.000723189
1.50738e-05
-0.0010423
5.14346e-05
-0.000136969
-6.32115e-05
-3.56671e-05
-0.000370314
1.28055e-05
0.000107926
-9.90682e-06
-2.38751e-05
-2.66559e-05
0.000114991
-3.5569e-05
1.54796e-05
1.35271e-05
5.6271e-07
1.09308e-06
9.774e-07
1.62881e-06
1.32089e-06
2.53854e-06
-2.15576e-06
-2.95795e-07
0.000936717
-0.00108806
5.22739e-06
-1.29944e-06
-7.40531e-06
8.31332e-07
-0.000464905
4.66117e-07
0.000650379
-0.000949893
2.23413e-06
0.0013338
-0.00187815
6.86558e-06
5.39266e-06
-2.93389e-07
5.48467e-06
6.66683e-06
2.5034e-05
3.64393e-05
2.32659e-05
1.20891e-05
5.74312e-06
4.52672e-06
1.07916e-05
6.05013e-06
5.48275e-07
0.000640885
-0.000904406
0.000817021
-0.00115422
0.00161526
-0.00221561
4.84853e-05
-0.000713191
5.22159e-05
0.000669862
4.1073e-05
-0.000382658
2.78888e-05
0.000302939
-1.49695e-05
5.3065e-06
0.000105813
-1.66394e-05
-0.000237863
0.00143444
6.66383e-05
-0.00127131
-0.000145675
0.00175953
0.00231769
0.000185686
-0.00246769
-0.000242183
0.00332877
0.00403311
0.000321578
-0.00435538
-0.000389613
0.00554249
0.00678735
0.000474162
-0.0072432
-0.000582996
0.008501
-0.0111659
-0.000802227
0.0117824
-0.0162988
-0.000349012
-0.000598487
-0.000115137
-2.00015e-05
2.25516e-05
2.71778e-05
2.141e-05
1.49468e-05
9.15648e-06
2.03271e-06
2.84563e-06
9.02537e-05
9.74646e-05
9.82868e-05
-2.02807e-05
0.000110606
1.31545e-05
1.21217e-05
0.0001142
-1.66142e-05
0.00011517
-3.45989e-05
5.21646e-06
-8.15099e-06
9.51208e-06
-2.0183e-06
6.53764e-06
1.04656e-06
-0.000442554
2.53006e-05
1.22925e-05
5.53352e-06
1.25148e-06
4.47457e-07
-6.45708e-05
6.54235e-05
3.27151e-06
-5.10781e-05
8.85997e-05
-2.33091e-05
6.79385e-06
4.11052e-05
1.63406e-05
-4.1847e-06
0.000114442
-0.000432525
3.28288e-05
-0.000295357
-6.25085e-05
0.0005005
0.000624614
3.92702e-05
-0.000647076
-7.69056e-05
0.00118846
9.38895e-05
-0.00130095
-0.000143597
0.0018715
0.00226462
0.000183356
-0.00250276
-0.000250699
0.00330868
-0.00440793
-0.000396664
0.00551823
0.00034049
0.000240619
0.000154505
8.8952e-05
4.27154e-05
6.77783e-06
1.48767e-06
1.97036e-06
5.8219e-06
2.42496e-06
-1.89705e-06
-8.98509e-06
-4.80156e-06
-2.92056e-06
-5.15998e-06
-4.07786e-05
-4.06826e-05
-8.69928e-05
-9.18088e-05
-0.000145456
-0.000170431
-0.000724175
-0.0012333
-0.00217027
-0.00234555
-0.0044554
-0.00383416
-0.00218206
-0.00842466
-0.0252806
0.00141802
-0.0405175
-0.0303151
-0.0231721
-0.015475
-0.0135787
0.00509026
-0.0119543
-0.000599016
0.00309363
0.000376333
-0.000119469
0.0147096
-0.0170236
0.0191941
0.000173828
-0.00239181
0.00359871
0.00787552
0.000274771
-0.00551917
0.00737224
0.00735251
0.000284285
-0.00589696
0.00759143
0.00691348
0.000207449
-0.0079041
0.00866323
-0.000387519
0.000341394
0.000470288
0.00336801
-0.0142081
-0.0204082
0.00105462
0.0166448
0.000329202
8.06145e-05
0.0104504
0.00013698
-0.0170884
0.020682
2.86505e-05
-0.0233265
0.0137911
-0.0134118
0.0116429
-0.00240801
-0.0156139
0.000429531
-0.0192612
0.0262247
-0.0229519
0.0205325
-3.4298e-05
-0.0205559
2.87983e-05
0.0203563
-6.26139e-05
-0.0204543
1.04697e-05
0.0205426
-7.77864e-05
-0.0206205
0.023359
-0.0267395
0.00192408
-0.0214793
0.0296665
0.00158798
0.000903744
-0.00981526
0.0104244
-0.0108064
3.92161e-05
-0.00784633
0.00721942
0.000515168
-0.00897961
0.00650641
-0.00769403
0.000696339
0.0151935
-0.0083103
0.00489228
0.00100839
-0.009151
0.00723277
-0.000163812
-0.000134909
-1.00846e-05
0.0002237
0.0001036
3.11303e-05
1.63887e-06
-6.85107e-06
-7.76219e-06
-5.76988e-06
-5.92364e-07
-2.17855e-06
5.13045e-05
6.18967e-05
1.20496e-07
-1.38306e-05
-8.66355e-06
0.000100998
3.13732e-05
-9.70314e-05
4.75663e-05
6.11378e-05
-0.000103562
1.55032e-07
-0.000104265
-8.98666e-06
-3.04011e-05
-9.22688e-05
0.000129621
0.000162294
7.90919e-06
3.17966e-05
-7.70674e-06
4.34152e-06
7.86756e-05
-8.54171e-05
-9.04553e-07
-9.54938e-05
9.62704e-05
8.63816e-05
-7.75839e-05
2.61142e-07
-9.56457e-05
1.24879e-07
9.60034e-05
2.3558e-07
7.19803e-07
-4.33094e-06
-3.18892e-06
1.06416e-05
2.14177e-07
0.000538878
0.000301409
0.000161885
-8.29174e-05
-0.000249748
-0.000448185
-0.000751492
-0.00126007
-0.00216727
-0.00389556
-0.00394344
-0.00777766
-0.00846771
-0.0183518
-0.029816
-0.0270409
-0.027165
0.0112304
-0.0156602
-0.00808748
-0.00873672
-0.025244
-0.0303887
-0.0275028
-0.0275259
-0.0273361
-0.0273416
-0.0312842
0.0113788
-0.00129546
-0.00588038
0.0336463
-0.00925281
-0.0228037
-0.0210431
-0.00617262
-0.00750448
-0.0172497
-0.0178058
-0.00207012
-0.00388402
0.000608996
0.000899205
0.00070626
0.0004598
0.000274419
0.000211479
0.000104818
0.000102502
3.58857e-05
6.31878e-05
-0.000170529
-0.000342099
-0.000587112
-0.000968785
-0.0016181
-0.00293576
0.000958021
0.000725382
0.000655991
0.000696408
0.000555089
0.00036603
0.000361967
0.000208089
0.000263609
0.000138206
0.000667881
0.00102981
-0.00139426
0.00204908
-0.00266902
0.000155998
0.00138079
-0.00101686
8.56258e-05
-3.59145e-06
-3.98836e-05
-4.11432e-05
-0.000525131
-1.13157e-05
-0.000108212
6.07331e-05
-3.66602e-05
-4.82977e-06
-9.12037e-06
1.70115e-05
-0.000111091
8.43163e-05
-5.15384e-07
-8.37849e-08
-6.10288e-08
9.5329e-08
5.16911e-05
-1.8781e-06
6.84694e-07
5.74626e-07
8.84563e-07
-3.13644e-05
5.86921e-07
1.35662e-05
8.62056e-06
1.1365e-05
-7.61757e-06
7.74746e-06
1.62492e-08
1.06731e-06
-3.13298e-05
0.000111529
0.000104228
-6.01022e-05
-1.60963e-05
-4.7775e-05
9.78663e-05
1.09366e-05
4.70999e-06
8.86723e-07
3.70762e-07
-3.05389e-06
-2.23948e-06
-2.62012e-06
-2.09598e-05
-6.28222e-06
-4.19361e-05
1.60928e-05
-8.28358e-05
-8.89671e-05
-0.000138139
-0.000163778
-0.00194182
0.00261573
0.0038212
-0.00484091
0.00667082
-0.00829802
0.000433941
0.00457867
-0.0035236
0.000268138
1.04545e-05
-6.51466e-05
4.8161e-05
-8.31609e-05
0.000114358
-0.00018987
-0.000223413
-0.000196845
-0.000225926
-0.000172911
-9.93747e-05
8.43858e-05
0.000142857
6.42096e-05
0.00312574
0.000130909
0.000125456
5.14405e-05
1.75199e-05
2.99015e-06
-2.53869e-06
2.67584e-07
-9.59593e-07
-7.47513e-06
8.41308e-06
2.34284e-06
-5.4474e-06
2.62238e-05
1.03058e-05
1.16323e-05
5.66263e-06
6.78994e-07
8.13938e-06
7.56798e-06
2.11286e-06
4.67653e-06
9.37308e-06
1.72067e-05
5.9015e-06
6.47698e-05
2.77696e-05
4.24941e-05
0.000148411
6.08548e-05
0.00012994
0.000318199
0.000246833
0.000663952
-0.00244534
-0.00282048
-0.000448953
0.00038308
0.000530173
0.000272137
-0.00677003
-0.000165481
-9.13243e-05
-9.36601e-05
-0.000711841
-0.000233722
0.0159743
-0.000222573
-0.0194856
-0.000155816
-0.000821303
-0.0181365
-0.000840292
-0.00100334
-0.0122472
-0.00635188
-0.0103057
-0.0245745
0.00260435
0.00614513
0.000368661
-0.0003406
-0.000295103
-0.000530573
7.52725e-05
-0.0143383
0.0186477
0.000110475
-0.00419668
0.00191647
0.00629195
4.34794e-05
-0.00789481
0.00503206
0.00508057
-1.07905e-05
-0.00813215
0.0053687
0.00451662
-6.14174e-05
-0.00749189
0.00184012
-0.0113106
0.00561922
0.00865997
-0.0105135
0.00306681
0.00124796
-0.000619908
-0.000100303
-1.42247e-05
2.90316e-05
3.09177e-05
2.318e-05
1.56035e-05
8.74309e-06
4.13952e-06
8.72736e-06
3.57331e-05
0.00128978
-0.00179527
5.48694e-05
0.00248179
-0.0033563
0.00300864
-0.00400889
0.00526011
-0.00681142
0.000104456
-0.00243287
0.000124814
0.00231746
7.12997e-05
-0.00134766
8.61813e-05
0.00129855
2.03746e-05
7.26787e-05
0.000432943
-6.26063e-05
-0.000779979
0.00492118
0.000231598
-0.0041665
-0.000389831
0.00533828
0.00693665
0.000484611
-0.00710521
-0.000577052
0.0103894
0.000778175
-0.0110526
-0.000865845
0.0117709
0.0150047
0.000813806
-0.0194338
-0.000556773
-0.0161654
-0.0192084
0.000935868
0.0145751
0.0120958
-0.0158746
-0.000496319
-0.000612281
0.000598126
0.000478059
0.000366717
0.000254367
0.00016016
8.97714e-05
4.28091e-05
7.65505e-05
1.69486e-05
8.83322e-08
2.53682e-05
-9.08811e-07
0.00448045
-0.005887
0.000140562
0.00757
-0.00969995
0.00865546
-0.0108271
0.0134755
-0.0157213
-0.000407767
-0.00625129
7.53957e-05
0.00632628
7.79461e-05
-0.00416379
0.000143972
0.00389748
1.41813e-05
0.00022495
0.00143489
-2.97133e-05
-0.0018285
0.0130729
0.000468276
-0.010219
-0.000861404
0.012364
0.0149268
0.00081597
-0.0199938
-0.000467623
-0.0143023
-0.0257478
0.000270627
0.018534
-0.00163201
0.00853948
-0.000265865
0.00569767
0.00513478
0.00254929
0.00161102
0.0105884
-0.00623462
-0.000263155
0.00130893
0.000721218
0.000477652
0.000325998
0.000208489
0.000120963
5.83467e-05
2.64207e-05
0.00021092
-0.000137695
-0.000226773
-5.59955e-05
4.49069e-05
-0.000133628
0.000432301
-0.000163667
-0.000191886
-0.000195009
-0.00012391
0.000325121
0.000369236
3.25319e-05
-0.00030109
-5.9891e-05
0.000607221
4.11828e-05
-0.000634772
-7.76338e-05
0.000994048
0.00119137
9.57021e-05
-0.00131803
-0.000148342
0.0018511
-0.000256365
-0.000199208
-0.00161357
-9.89479e-05
-0.000800624
0.000253797
0.000255099
8.24792e-05
-0.000171195
-0.000276113
-0.00016908
-0.000137939
-0.000303297
-8.20774e-05
-4.75461e-05
2.66086e-05
3.73566e-06
0.000736663
3.03185e-05
-0.000637121
-7.99395e-05
0.000933178
0.00121927
9.18352e-05
-0.00130691
-0.000141671
0.00225655
0.00018862
-0.00247109
-0.000245786
0.00333205
0.00405513
0.000305296
-0.00532264
-0.000538656
-0.000345485
-0.00303496
0.000684034
0.000687875
0.000437092
-0.000110354
-0.000784823
-4.1651e-05
-0.000335235
8.58451e-05
-0.000124904
-0.000142083
8.32149e-05
0.000257453
-0.000139468
-0.000960213
0.00023509
3.5534e-05
0.000228614
-3.77959e-05
0.00273582
0.000136127
-0.00238179
-0.000247819
0.0031568
0.00414895
0.000315388
-0.00433517
-0.000382674
0.00672949
0.000503705
-0.00716422
-0.000588774
0.00850473
0.0105488
0.000719699
-0.0134209
0.000436665
-6.95858e-05
-2.23741e-05
1.81194e-05
1.2999e-05
7.63458e-06
3.98498e-06
1.91512e-06
-1.37011e-06
-1.95463e-08
7.50861e-06
4.05241e-07
-1.94092e-06
1.76278e-06
1.2114e-05
3.55848e-05
5.96513e-05
2.39027e-05
7.38141e-06
1.16668e-06
1.7432e-06
-6.80188e-07
5.66919e-07
0.000948599
1.41559e-06
-0.000943778
0.00133305
2.82346e-06
-0.00186893
0.00187783
-0.00132638
0.00134383
3.27505e-06
-0.00189684
0.00186766
-0.00133357
0.000943188
-9.21202e-07
-0.000961306
0.000656453
-0.000652259
0.000655479
-0.000653204
3.51131e-06
-0.000938555
0.000965751
4.66838e-06
-0.00133778
2.01555e-06
-0.00186004
0.00190605
6.97328e-06
-0.00258671
4.33318e-07
-0.00346877
0.00354044
-0.00347888
0.00349412
5.14821e-06
0.0025712
-0.00255893
2.42013e-06
0.00259723
9.50255e-06
-0.00352414
0.00348144
-0.0025647
-1.92644e-05
-0.00215034
0.00130965
6.42119e-06
0.00150404
-1.3971e-05
-0.00109429
0.000670331
4.68193e-06
0.000743347
-0.00066148
0.00046211
-2.9817e-06
-0.000471154
-4.56009e-08
0.000461392
6.85059e-07
-0.000459131
2.63901e-06
0.000472837
4.19271e-06
-0.00045961
0.000664337
-0.000741095
1.00681e-05
9.86486e-06
5.53239e-06
1.66359e-05
9.4892e-06
-0.000175836
0.000183587
-0.000180253
0.000180736
1.80931e-07
-2.30934e-07
-5.7942e-07
-0.000183349
0.000176433
-9.15617e-06
-5.15671e-06
8.63093e-05
-9.78646e-05
3.81214e-08
-9.58491e-07
0.000347148
-0.000351915
0.000353171
-0.00034573
0.000361096
-0.000368349
-5.79409e-06
3.66004e-08
-8.58442e-05
5.4651e-06
9.8021e-05
-3.94452e-06
5.55745e-06
5.60371e-06
1.64534e-06
3.3438e-06
6.10783e-06
7.17328e-06
7.22908e-06
-0.004616
6.96392e-06
-0.00605555
0.00607818
-0.00612588
0.00607349
1.93688e-05
0.00469079
-0.00461943
-2.27707e-05
-0.0039897
0.00243442
1.55471e-05
0.0029016
-0.00180119
-8.88332e-05
-0.00124458
0.00157614
-0.000207834
-0.00231268
0.00286967
-0.00031364
-0.00400908
0.00496195
-0.000389223
-0.00649704
0.00809913
-0.000551214
-0.0101455
-0.00117983
-0.000404354
-0.000613036
-0.00021641
-0.000392541
-0.000160973
-0.000262292
-0.000109524
-0.000163786
-6.13655e-05
-0.000111617
0.000827895
-0.000934877
-5.11491e-05
-0.000614566
0.000440065
-1.61805e-05
-1.72526e-05
-9.18906e-05
-3.13194e-05
-0.00024823
-2.73163e-05
0.000351115
1.22105e-05
-0.000540856
-7.89785e-06
-7.44731e-06
2.94722e-05
1.05454e-05
-1.69319e-05
-0.000176402
0.00026255
8.40894e-05
0.000324564
0.000111886
6.35832e-05
6.35641e-06
2.94851e-05
-0.000291329
0.000369657
-0.000360186
6.24777e-06
-3.91233e-07
-1.72967e-05
-4.5101e-06
4.93599e-08
3.72142e-05
5.6926e-05
9.44733e-05
0.000156514
3.597e-05
-0.00693803
0.00424641
-0.00325332
0.0052501
1.44461e-05
3.64506e-06
-2.00737e-06
1.62725e-06
7.73905e-06
1.78527e-05
3.27386e-05
4.14846e-05
-1.71455e-05
-0.00776896
3.17495e-05
-0.00993738
0.00989759
-0.0112868
0.00692661
7.72631e-05
0.00889675
-0.0055178
-0.00016415
-0.000148994
0.000693952
0.000550912
0.000705451
0.000930543
0.0074248
0.0109022
-0.0134724
0.00148403
7.13675e-05
-6.33553e-05
0.00036819
-0.000178363
-0.000130819
-0.00604552
4.02479e-05
0.000543516
-0.0097276
0.000680868
9.31005e-05
3.80115e-05
8.90894e-05
0.000206407
0.000305158
0.000139039
4.96273e-05
2.15341e-05
1.841e-05
1.8504e-05
2.66225e-05
3.60245e-05
2.20976e-05
1.60337e-05
2.22735e-05
1.35702e-05
1.20038e-05
1.73196e-06
1.02345e-05
1.1881e-05
8.7763e-05
2.48936e-05
1.4987e-05
9.94728e-06
9.96521e-06
6.83487e-06
3.48827e-06
7.00201e-06
6.30142e-06
6.47418e-06
-1.65609e-05
1.0487e-05
2.40008e-05
1.79892e-05
3.32184e-05
5.38555e-05
6.03793e-05
0.000108742
5.2178e-05
0.000102104
4.76409e-05
0.0119361
-0.0149809
0.000267564
0.0173222
0.000338942
6.44427e-05
0.000197282
0.00125294
-0.00345706
0.0123611
-0.0103887
0.021894
0.00315591
0.0132498
-0.0116863
0.0101604
-0.0097893
0.00711871
0.00807102
-0.0106074
0.00238225
-0.0115253
0.00752362
0.00777286
0.0145264
-0.000785806
-0.000323168
-0.00182169
-0.000139397
-0.00716752
-0.000156682
-3.17027e-05
3.06523e-05
4.3949e-05
7.43575e-05
3.76519e-05
3.30562e-05
3.92198e-05
3.36627e-05
-5.05749e-06
3.52457e-05
-4.01511e-06
0.000276942
0.000183272
0.000122425
-0.00652657
0.00830387
0.000350711
-0.00678466
-0.000585538
0.00847988
0.0107186
0.000717818
-0.0109017
-0.000841459
-0.0133112
0.000480264
0.000370572
-1.80358e-05
1.04551e-05
-5.56633e-06
0.000216926
3.66534e-05
1.84601e-05
2.45833e-05
1.85359e-05
-3.85992e-06
0.000163256
9.20771e-05
4.2348e-05
-0.00077326
-9.70945e-05
0.000994665
-3.51417e-05
0.000523346
-0.000345112
-0.00026437
0.000335811
-0.000183723
-0.000163991
-0.000169457
8.34194e-05
-0.000197953
-0.000220771
-0.00162184
0.000465288
-0.00021983
-0.00043975
0.000408822
0.000758491
-0.000356763
-0.00370299
0.000647503
0.000119959
0.000775093
-7.71976e-05
-0.00127886
-0.000529673
0.00101525
0.00169497
0.00116846
-0.000381974
-0.0030826
-0.00034539
-0.00299659
0.00102935
-0.000597399
-0.00543176
-0.000539434
0.00556184
0.00139982
-0.000881269
-0.00893821
-0.000595068
-0.0108294
0.00191618
0.000674152
0.00322441
0.000188454
-0.0170627
0.000365716
0.00228637
0.00280437
0.00392658
0.0126953
0.0297643
0.0156595
0.0230748
-0.00219129
-0.00128724
-0.0137958
0.00154889
0.00118733
0.00285397
0.0153861
0.0223961
-0.00210575
-0.00117081
-0.000793636
0.00861365
-0.00865523
0.00132965
0.00101251
0.00132254
0.000769101
0.00229319
0.0141393
0.0225969
-0.002164
-0.00117882
-0.000795204
-0.00872773
-0.000975874
-0.000669283
-0.000437021
0.000563131
0.000333932
0.000165634
5.21256e-05
0.000160085
0.000865235
0.00120598
0.00145948
-0.00133207
-0.00176573
0.00223022
0.012894
0.0252608
-0.00431418
0.00531873
0.00234822
0.00190499
0.000169663
-0.000140602
-7.19743e-05
-3.49424e-05
-1.64535e-05
-7.25025e-06
-2.12077e-06
2.43213e-06
1.28056e-06
5.69323e-07
-2.57065e-07
3.12985e-06
1.66502e-06
1.63881e-06
1.21446e-06
-1.11775e-05
-2.90562e-05
-3.56975e-05
6.7269e-06
1.8421e-05
-0.0015017
0.00134017
8.05842e-06
6.03552e-06
7.12414e-06
5.68277e-06
4.09688e-06
7.5239e-06
2.3221e-05
4.12459e-06
9.16245e-05
-0.000479413
4.45627e-05
4.69007e-05
7.16992e-06
8.61049e-06
1.07473e-05
1.19846e-06
-5.44463e-06
1.55173e-05
1.14175e-05
9.81305e-06
9.09777e-06
9.7902e-06
1.1967e-05
3.84137e-05
3.58281e-05
0.00986023
3.00785e-06
-0.00983621
0.0122247
-1.82535e-05
-0.0148535
0.014849
-0.0122058
0.0124217
3.05173e-05
-0.0149813
0.0149947
-0.0121802
1.51434e-05
0.0141134
-0.00885324
-0.000122233
-0.000127617
0.000108542
0.000248606
0.000311852
-0.000146958
-0.00142943
-0.00292593
-0.00545764
-2.37926e-06
-0.00204932
-0.000847211
-0.000255488
0.000257647
0.000238441
5.13275e-05
4.94023e-05
4.71151e-05
2.34347e-05
0.00790643
-0.00777165
0.00779732
-0.00788193
-1.66579e-05
-0.00984346
0.00996435
-8.08663e-07
-0.012408
-4.63231e-05
-0.0149107
0.014996
-1.80087e-05
-0.0180947
0.0178225
-0.0204612
1.67944e-06
-0.000148367
-5.23107e-05
1.51601e-05
2.85447e-05
0.000108292
0.000265477
0.000581124
0.0036327
-0.00234613
0.0554856
-0.00150028
-0.000246944
-0.00105395
-0.0111514
0.00253542
0.00650089
0.000498056
-0.00012343
-0.00566859
-0.000151589
0.000126107
0.000268642
2.29211e-05
2.98619e-05
0.000554589
0.000324518
-0.0181154
0.0160839
-0.000789099
-0.000473582
-0.000166653
0.00319364
-0.000873783
0.00261587
0.00428882
0.00775979
0.0148829
0.00321297
-0.00818495
0.0033177
-0.0114931
0.00264366
0.00119016
-0.00782594
0.000567928
-0.000130911
8.76164e-06
-2.75009e-05
9.90265e-06
0.00011035
-8.28539e-05
-0.000195582
-6.02201e-05
-0.000213406
-4.75047e-05
6.3305e-06
-2.76976e-06
1.10284e-05
-6.92902e-06
-1.45399e-06
-3.88355e-05
4.04407e-06
6.06411e-05
0.000135432
0.000281908
0.00538648
0.023173
0.00121227
-0.00287712
0.0148089
0.000876225
-0.00202234
-0.00148561
-0.00251555
0.055147
-0.00123589
-0.000266313
0.000494157
0.000102125
0.00023231
-0.00517109
-0.000167591
-0.000159524
-0.00111513
-0.0112555
-0.0104724
-0.00679454
-0.0238302
0.00257082
0.00579504