/*--------------------------------*- C++ -*----------------------------------*\
| =========                 |                                                 |
| \\      /  F ield         | OpenFOAM: The Open Source CFD Toolbox           |
|  \\    /   O peration     | Version:  2306                                  |
|   \\  /    A nd           | Website:  www.openfoam.com                      |
|    \\/     M anipulation  |                                                 |
\*---------------------------------------------------------------------------*/
FoamFile
{
    version     2.0;
    format      ascii;
    arch        "LSB;label=32;scalar=64";
    class       volScalarField;
    location    "1.3";
    object      gradTz;
}
// * * * * * * * * * * * * * * * * * * * * * * * * * * * * * * * * * * * * * //

dimensions      [0 -1 0 1 0 0 0];

internalField   nonuniform List<scalar> 
5322
(
-0.0595252
-0.0525279
-0.0412719
-0.044559
-0.030689
-0.0198527
-0.01204
-0.00684953
-0.00367519
-0.00191031
-0.00105311
-0.000791187
-0.000519331
-0.000760552
-0.00086408
-0.000787218
-0.00091068
-0.000771434
-0.00126297
-0.00170025
-0.00249084
-0.00338953
-0.00488514
-0.00655583
-0.00912174
-0.0117549
-0.0157875
-0.0199287
-0.0257954
-0.0312964
-0.039094
-0.0463526
-0.0554934
-0.0624208
-0.0683
-0.0614854
-0.073548
-0.0718622
-0.0740105
-0.0549371
-0.0685162
-0.0707337
-0.0538328
-0.0707375
-0.0700202
-0.0548091
-0.0717903
-0.0679042
-0.0542964
-0.0708416
-0.0815018
-0.0541764
-0.0764171
-0.0662216
-0.057942
-0.0625671
-0.07876
-0.0612827
-0.0578614
-0.0623247
-0.0795321
-0.0621009
-0.0578329
-0.0608081
-0.0795589
-0.0643771
-0.0576726
-0.0578802
-0.0781963
-0.0688847
-0.0481337
-0.069656
-0.0662733
-0.0652689
-0.0658598
-0.0655445
-0.0654975
-0.0653545
-0.0664856
-0.0636727
-0.0624442
-0.0514847
-0.0534149
-0.0672718
-0.0425018
-0.0591243
-0.0888578
-0.059092
-0.0587664
-0.050293
-0.0616004
-0.0402221
-0.042337
-0.0423239
-0.0559748
-0.0559452
-0.051959
-0.0566591
-0.0903013
-0.0573006
-0.0580634
-0.0509589
-0.0571208
-0.0554009
-0.0605718
-0.0505969
-0.053003
-0.0450551
-0.0310791
-0.0201476
-0.0122139
-0.00692689
-0.00368791
-0.0018925
-0.00116436
-0.000891571
-0.000661786
-0.000693056
-0.00107633
-0.000748639
-0.000629297
-0.000718401
-0.000707999
-0.000969335
-0.000735855
-0.000951621
-0.000701667
-0.000733125
-0.000939226
-0.00070361
-0.000721846
-0.00095011
-0.000715215
-0.000709265
-0.000953054
-0.000722194
-0.000710647
-0.000975789
-0.000740066
-0.000956712
-0.000706455
-0.000633147
-0.000751301
-0.000685219
-0.000664146
-0.00107931
-0.000695082
-0.000692666
-0.000658443
-0.000665047
-0.00109247
-0.000694311
-0.000692018
-0.000661487
-0.000662414
-0.00109074
-0.000692605
-0.000683471
-0.000630802
-0.000866233
-0.000787928
-0.000914351
-0.00140737
-0.00185385
-0.000984989
-0.00126839
-0.000774023
-0.000927842
-0.000558224
-0.000734581
-0.000763429
-0.000714592
-0.000868635
-0.00089655
-0.000833986
-0.00134511
-0.00133214
-0.00175207
-0.00123652
-0.00175335
-0.0025281
-0.00252808
-0.00348405
-0.0024519
-0.00349339
-0.00491181
-0.00491308
-0.0066651
-0.00476504
-0.00667895
-0.00910545
-0.00910896
-0.0119918
-0.00873026
-0.0120184
-0.0158565
-0.0158717
-0.020201
-0.0149836
-0.020256
-0.0258887
-0.0259355
-0.0318566
-0.0240681
-0.0319569
-0.0395316
-0.0396455
-0.0470168
-0.0360318
-0.0472006
-0.0556023
-0.0557221
-0.056571
-0.0902882
-0.0572739
-0.0571058
-0.0511127
-0.0693325
-0.0691823
-0.0423411
-0.0423912
-0.055886
-0.0564136
-0.0515484
-0.057424
-0.0902723
-0.0576656
-0.0570292
-0.0512474
-0.0563289
-0.0556553
-0.0519161
-0.0517492
-0.0449714
-0.0311005
-0.0201857
-0.01224
-0.00694124
-0.00369493
-0.0018957
-0.0011663
-0.000893492
-0.000662608
-0.000663502
-0.000663092
-0.000661394
-0.00109076
-0.000691876
-0.000692753
-0.000652816
-0.000722796
-0.0011136
-0.000691902
-0.00109178
-0.000694038
-0.00110546
-0.000734051
-0.000939828
-0.000705141
-0.000653607
-0.000723304
-0.000940687
-0.000515923
-0.000738661
-0.00083471
-0.000833836
-0.000869502
-0.00133322
-0.00175341
-0.00253073
-0.0034858
-0.00491851
-0.00666672
-0.00911883
-0.0119937
-0.0158893
-0.0202022
-0.0259695
-0.0318478
-0.0397142
-0.0469654
-0.0561241
-0.055906
-0.0903508
-0.0569178
-0.0519538
-0.0554831
-0.0473381
-0.0360621
-0.0395351
-0.0320153
-0.0240891
-0.0259133
-0.0202779
-0.0149954
-0.0158755
-0.0120267
-0.00873642
-0.00911705
-0.00668206
-0.00476822
-0.00491944
-0.00349387
-0.00245349
-0.00253335
-0.00175271
-0.00123704
-0.00134768
-0.000955017
-0.00134757
-0.00175353
-0.0012378
-0.00133448
-0.00087052
-0.000898314
-0.000714982
-0.000520878
-0.000767903
-0.000790997
-0.00134683
-0.00174912
-0.00252759
-0.00349585
-0.00492718
-0.00668522
-0.00915787
-0.0120297
-0.0159815
-0.0202697
-0.0261919
-0.0318727
-0.0402299
-0.0466209
-0.0565181
-0.0563045
-0.0894378
-0.0599768
-0.0504772
-0.0608639
-0.0513769
-0.0351167
-0.0431171
-0.0344455
-0.0234195
-0.0280707
-0.021666
-0.0145388
-0.0171225
-0.012802
-0.00845737
-0.00981607
-0.00709551
-0.00461033
-0.00527875
-0.00369589
-0.00236848
-0.0027007
-0.00185536
-0.00118902
-0.0014081
-0.000916178
-0.000869049
-0.000737124
-0.00074015
-0.000680446
-0.000929526
-0.000558202
-0.000639433
-0.000817727
-0.000772765
-0.00136281
-0.00180348
-0.00174805
-0.00175133
-0.00122631
-0.00132705
-0.0013533
-0.000804647
-0.000894045
-0.000882418
-0.000950659
-0.00092647
-0.00105763
-0.000779636
-0.000743533
-0.00110297
-0.00101205
-0.000955088
-0.000862544
-0.000839853
-0.00134812
-0.00175364
-0.00174657
-0.00253479
-0.00349442
-0.00492143
-0.00668185
-0.00641496
-0.00912478
-0.0120187
-0.0159021
-0.0202398
-0.0188387
-0.0259852
-0.0318913
-0.0396823
-0.047063
-0.0423904
-0.0423371
-0.0292789
-0.0293245
-0.0190041
-0.0189088
-0.0261466
-0.0319443
-0.0241245
-0.0323097
-0.0395518
-0.040032
-0.0468538
-0.0360728
-0.0479916
-0.0551146
-0.0624713
-0.055182
-0.091364
-0.0592214
-0.0560327
-0.0530834
-0.0679414
-0.0403057
-0.0368443
-0.0498999
-0.0300215
-0.0400519
-0.0327203
-0.0195815
-0.0261811
-0.0202698
-0.012061
-0.0160363
-0.0119425
-0.00700595
-0.0091525
-0.006551
-0.00380853
-0.00491874
-0.00338974
-0.00195146
-0.00248314
-0.00168668
-0.000980831
-0.00126694
-0.000829636
-0.000793733
-0.00116271
-0.00116353
-0.00151789
-0.00227327
-0.0025542
-0.00359061
-0.00502029
-0.00687043
-0.00666564
-0.00669808
-0.00475692
-0.00493409
-0.00492848
-0.00350192
-0.00244423
-0.00347419
-0.00340024
-0.00328892
-0.00167603
-0.00144669
-0.00176771
-0.00162019
-0.00154205
-0.00184405
-0.00189638
-0.00104898
-0.000791099
-0.00053786
-0.000922686
-0.000527566
-0.000806996
-0.00100191
-0.00133772
-0.00258824
-0.00363786
-0.00366318
-0.0068714
-0.00690761
-0.00500279
-0.00449374
-0.00457957
-0.00601008
-0.00833521
-0.00938887
-0.0123663
-0.0164354
-0.0208636
-0.0203478
-0.0203015
-0.014998
-0.0159561
-0.0159673
-0.0120515
-0.0087272
-0.0120309
-0.0114061
-0.0109282
-0.00618534
-0.00541519
-0.00647044
-0.00624987
-0.00595125
-0.00343834
-0.00321253
-0.00306363
-0.00309967
-0.00234079
-0.00285983
-0.00265412
-0.00192132
-0.00106114
-0.00079611
-0.000801441
-0.000731255
-0.000964295
-0.000771864
-0.00136579
-0.0013659
-0.00175478
-0.00174001
-0.00253219
-0.00253403
-0.00349415
-0.00245549
-0.00349064
-0.00340224
-0.00492104
-0.00492398
-0.00667966
-0.00477343
-0.00668284
-0.00640875
-0.00912359
-0.00913377
-0.0120148
-0.00874866
-0.0120358
-0.0113545
-0.0158951
-0.0159226
-0.0202347
-0.0150202
-0.020301
-0.0188465
-0.0259495
-0.0260374
-0.0318695
-0.0241279
-0.0320659
-0.0292823
-0.0395448
-0.0398149
-0.0469609
-0.0360787
-0.0473725
-0.042312
-0.0554875
-0.0560004
-0.0565178
-0.0518644
-0.0565514
-0.0515492
-0.0574622
-0.0554484
-0.0495742
-0.0671678
-0.0434277
-0.0555379
-0.0412026
-0.0393964
-0.0469015
-0.0465546
-0.0427806
-0.0460467
-0.0465447
-0.0392846
-0.0323981
-0.0317932
-0.0202814
-0.0206131
-0.0157951
-0.0123074
-0.0121702
-0.0120768
-0.00684214
-0.00366693
-0.0019087
-0.0010527
-0.000790584
-0.00052295
-0.00076029
-0.000671161
-0.000806206
-0.00081453
-0.000720668
-0.000744378
-0.000899996
-0.000652079
-0.000798531
-0.000744834
-0.000744292
-0.000799263
-0.000631888
-0.000795933
-0.00074684
-0.00075244
-0.000902761
-0.000653633
-0.000661078
-0.000660152
-0.000654267
-0.000652575
-0.00064595
-0.00111377
-0.000659294
-0.000653869
-0.000653958
-0.00111468
-0.00066018
-0.00091227
-0.00118731
-0.00117579
-0.00101472
-0.00100925
-0.000948631
-0.00176822
-0.00346421
-0.00650954
-0.0114852
-0.0189629
-0.0180752
-0.0160398
-0.0190535
-0.0185058
-0.0176456
-0.0185738
-0.0239003
-0.0271794
-0.0326579
-0.0427593
-0.0363745
-0.0361634
-0.0273569
-0.0300857
-0.0236913
-0.0257054
-0.0260344
-0.0200407
-0.0312059
-0.0455102
-0.0628351
-0.0628109
-0.0634384
-0.0523586
-0.0476914
-0.0509616
-0.0576461
-0.0497946
-0.0575219
-0.0844877
-0.0761805
-0.0729726
-0.0756146
-0.04765
-0.0610061
-0.0638961
-0.0771094
-0.048903
-0.0629708
-0.0641319
-0.0774747
-0.049119
-0.062192
-0.0649695
-0.077365
-0.0503835
-0.0617549
-0.0694085
-0.0966803
-0.0782457
-0.0765799
-0.0973084
-0.0957107
-0.0755353
-0.0547588
-0.0764273
-0.066277
-0.057917
-0.0624431
-0.0680467
-0.0543287
-0.0707299
-0.0815452
-0.0541649
-0.0624846
-0.0515138
-0.0534599
-0.0672928
-0.0554226
-0.0405936
-0.0483054
-0.0393779
-0.02829
-0.0320211
-0.0258663
-0.018142
-0.0200738
-0.0158761
-0.0109357
-0.0118462
-0.00912502
-0.00616342
-0.00656317
-0.00491085
-0.00326436
-0.0034105
-0.0025004
-0.00161609
-0.00171056
-0.00126933
-0.000839108
-0.000928965
-0.000675473
-0.000736423
-0.000734175
-0.000914622
-0.0014094
-0.00185533
-0.00118804
-0.0013475
-0.000788602
-0.00086732
-0.000765704
-0.000519849
-0.000713228
-0.000738611
-0.000897675
-0.000811768
-0.000800498
-0.00106589
-0.00192626
-0.00369764
-0.00369794
-0.00691331
-0.0122132
-0.0114575
-0.0109051
-0.0104241
-0.0109782
-0.0146592
-0.0145402
-0.00843238
-0.0091654
-0.00930194
-0.00915459
-0.00915113
-0.00643227
-0.00668502
-0.00911457
-0.00874745
-0.0120347
-0.015876
-0.0150147
-0.0202899
-0.0259164
-0.0241084
-0.0320054
-0.0395291
-0.0360402
-0.047152
-0.0389206
-0.0395778
-0.0541502
-0.0541918
-0.0456741
-0.0311605
-0.020011
-0.01207
-0.00684581
-0.00367291
-0.00191293
-0.00105793
-0.000795774
-0.000520869
-0.000737868
-0.000809686
-0.000792144
-0.00105537
-0.00191273
-0.00368066
-0.00687162
-0.0121199
-0.0200904
-0.0312844
-0.0457661
-0.0638729
-0.0634028
-0.053952
-0.104639
-0.0764614
-0.0733146
-0.0641731
-0.0774415
-0.0491769
-0.0493115
-0.0533894
-0.0796999
-0.0507783
-0.0515573
-0.0525671
-0.0801382
-0.0510117
-0.0517851
-0.0522574
-0.0800475
-0.0525266
-0.0534484
-0.0590978
-0.102008
-0.0791804
-0.077231
-0.0775697
-0.0769074
-0.0605862
-0.0560591
-0.059363
-0.101634
-0.0586799
-0.0615288
-0.0794799
-0.0621792
-0.0577899
-0.06069
-0.0711164
-0.0537972
-0.0703434
-0.0703794
-0.0549363
-0.0715261
-0.0614498
-0.0578337
-0.0620983
-0.065598
-0.0653762
-0.0659414
-0.0650931
-0.0578616
-0.0585636
-0.063765
-0.0796331
-0.0689534
-0.0554489
-0.0734633
-0.0646357
-0.055453
-0.088831
-0.0475537
-0.0608813
-0.0500598
-0.0570476
-0.050002
-0.0382084
-0.0426856
-0.0355156
-0.0270188
-0.0287222
-0.0235372
-0.0170575
-0.0183314
-0.0143626
-0.0105337
-0.0107865
-0.00832863
-0.00578251
-0.00602949
-0.0044462
-0.00312481
-0.00310177
-0.00228045
-0.00152758
-0.00153856
-0.00115412
-0.000795255
-0.000816247
-0.000522673
-0.00091316
-0.000667483
-0.000534497
-0.000968257
-0.000706415
-0.000733979
-0.000947887
-0.000700759
-0.000729902
-0.000935574
-0.000700793
-0.000720711
-0.000946899
-0.000714634
-0.000705052
-0.000948812
-0.000522682
-0.00071788
-0.000897841
-0.000835643
-0.000952961
-0.0013417
-0.00123386
-0.00175026
-0.00174737
-0.00173409
-0.00251737
-0.00235887
-0.00348036
-0.00368168
-0.00285255
-0.0052571
-0.0037921
-0.00705291
-0.00538292
-0.00974019
-0.00694167
-0.0127084
-0.00953214
-0.0169366
-0.0119165
-0.021419
-0.0157941
-0.0275301
-0.0191137
-0.033833
-0.0245175
-0.041927
-0.0287701
-0.0501257
-0.035676
-0.0592004
-0.0404035
-0.047528
-0.0562521
-0.0549676
-0.0424169
-0.0480707
-0.0343845
-0.0401711
-0.0389969
-0.0291101
-0.032584
-0.0229118
-0.0263436
-0.0256607
-0.0187553
-0.0206605
-0.0143018
-0.0162026
-0.0157911
-0.0113149
-0.0122829
-0.00833515
-0.00930145
-0.009093
-0.00639261
-0.0068216
-0.00455546
-0.00501272
-0.00491095
-0.00339116
-0.00357129
-0.00233464
-0.00255714
-0.00252459
-0.001731
-0.00179009
-0.0011642
-0.00136522
-0.00132166
-0.000947294
-0.000766361
-0.000635246
-0.000555611
-0.000732487
-0.00073464
-0.000673097
-0.000924969
-0.00083258
-0.000959025
-0.000729854
-0.000799462
-0.000809219
-0.000733893
-0.000894609
-0.000832435
-0.000865119
-0.000944638
-0.00134072
-0.0011848
-0.00184866
-0.00144591
-0.00269206
-0.00194702
-0.00265261
-0.00136632
-0.00136641
-0.00133086
-0.00100536
-0.00109969
-0.000690765
-0.00108856
-0.000690564
-0.000649967
-0.000794996
-0.000749947
-0.000742559
-0.000751778
-0.000746419
-0.00111328
-0.00101465
-0.000954534
-0.00177438
-0.00177374
-0.00174998
-0.00253554
-0.00253443
-0.00173398
-0.0026494
-0.00137319
-0.0013723
-0.00133585
-0.00123922
-0.0017581
-0.00252943
-0.0024563
-0.00349516
-0.00491639
-0.00477361
-0.0052375
-0.00347302
-0.00341771
-0.00652473
-0.0115107
-0.0113925
-0.0114947
-0.00651852
-0.00347128
-0.00341059
-0.00345745
-0.0017652
-0.00173709
-0.00174378
-0.00252334
-0.00269763
-0.00368895
-0.00526522
-0.00706508
-0.00379979
-0.00491068
-0.00285742
-0.00340663
-0.00195345
-0.0024999
-0.00144983
-0.00170826
-0.00161222
-0.00153746
-0.00228391
-0.00234292
-0.00311987
-0.0035764
-0.00339867
-0.00491704
-0.00473524
-0.00663819
-0.00667003
-0.0064086
-0.00906807
-0.00869564
-0.0119617
-0.0119668
-0.0113001
-0.0157413
-0.0148739
-0.0201117
-0.0201259
-0.0186814
-0.0256745
-0.0230473
-0.0316876
-0.0390558
-0.0345365
-0.0468617
-0.05451
-0.0478112
-0.0532273
-0.0451736
-0.031094
-0.0201382
-0.0122042
-0.00692066
-0.00368426
-0.00189056
-0.00116298
-0.000890169
-0.00066092
-0.000659957
-0.000663277
-0.000692299
-0.00110983
-0.00101256
-0.00100979
-0.00109878
-0.000690832
-0.000649746
-0.000797254
-0.000740804
-0.000776555
-0.000741506
-0.00110273
-0.00100718
-0.000946442
-0.00134476
-0.0011879
-0.00134097
-0.00133342
-0.00117597
-0.0009025
-0.000654806
-0.000653066
-0.00111456
-0.000646468
-0.000656693
-0.00108986
-0.00133315
-0.0017695
-0.00167348
-0.000924245
-0.00105279
-0.00137244
-0.000950873
-0.00132333
-0.00122376
-0.00174805
-0.00174551
-0.00174739
-0.00252431
-0.00244943
-0.00348502
-0.00340411
-0.00489988
-0.00475018
-0.00665626
-0.006649
-0.00637904
-0.00908476
-0.00839454
-0.0119541
-0.0157891
-0.0143819
-0.0201133
-0.0188694
-0.0114316
-0.00648321
-0.00345172
-0.00176218
-0.00133099
-0.00117424
-0.000900956
-0.00132808
-0.00190678
-0.00133606
-0.00134375
-0.00133414
-0.00132914
-0.00190641
-0.00177365
-0.00174723
-0.00347056
-0.00341135
-0.00651755
-0.00641696
-0.00689331
-0.0121562
-0.0201577
-0.020281
-0.0316137
-0.029678
-0.0287124
-0.0426858
-0.0565901
-0.0494272
-0.0715782
-0.0553221
-0.107152
-0.0750398
-0.073747
-0.0681074
-0.0851416
-0.0781647
-0.0806
-0.0777674
-0.106523
-0.0741225
-0.0732185
-0.0641317
-0.0770957
-0.0490332
-0.0500566
-0.0540006
-0.0792707
-0.0505599
-0.0524506
-0.0533648
-0.0797047
-0.0507963
-0.0525254
-0.0532013
-0.0796052
-0.0524174
-0.053842
-0.0731071
-0.0530119
-0.0423479
-0.0423423
-0.0472393
-0.0503457
-0.0349212
-0.0427148
-0.0293489
-0.0351071
-0.0411102
-0.0291812
-0.0388017
-0.0474273
-0.0424962
-0.0541456
-0.0589685
-0.0472065
-0.0443935
-0.0387425
-0.0489931
-0.0485709
-0.0636615
-0.0665529
-0.0652545
-0.0547071
-0.0422292
-0.0541395
-0.0490987
-0.0543819
-0.0421529
-0.0541258
-0.0491485
-0.0544548
-0.0422873
-0.0542123
-0.0664144
-0.0649648
-0.0579979
-0.0548415
-0.0659455
-0.0800924
-0.0605269
-0.0780425
-0.079176
-0.0760119
-0.061509
-0.0586849
-0.0591044
-0.101129
-0.0594004
-0.0660907
-0.0979456
-0.0800197
-0.0766023
-0.0605665
-0.0586815
-0.073432
-0.053549
-0.0532996
-0.0725847
-0.0520069
-0.0451977
-0.0450626
-0.0310859
-0.0201529
-0.0122171
-0.00692878
-0.00368885
-0.00189296
-0.00116462
-0.00089179
-0.000646612
-0.00065354
-0.000803723
-0.000742723
-0.000742412
-0.000937644
-0.000732236
-0.000631114
-0.000683898
-0.00074877
-0.000693314
-0.00062965
-0.000708128
-0.000971252
-0.000736383
-0.00105309
-0.000703093
-0.000951043
-0.00077702
-0.000797899
-0.000740852
-0.00109926
-0.000691035
-0.000692747
-0.00109028
-0.000661946
-0.000661612
-0.000693037
-0.00068967
-0.00064871
-0.00071444
-0.000957871
-0.000715311
-0.00110972
-0.00101292
-0.00100985
-0.000924728
-0.000775336
-0.000966203
-0.000731134
-0.000803442
-0.000795478
-0.00106124
-0.00192401
-0.0037005
-0.00690563
-0.0121761
-0.0201789
-0.0314119
-0.0313942
-0.0459886
-0.0461296
-0.0633887
-0.0544573
-0.0568694
-0.0571553
-0.0904069
-0.0658709
-0.0740697
-0.076405
-0.10436
-0.0537565
-0.0570837
-0.0572279
-0.0548266
-0.0580658
-0.0590447
-0.0888717
-0.0572824
-0.059126
-0.05032
-0.0587694
-0.0698832
-0.0550755
-0.0423108
-0.0459205
-0.0639684
-0.0637529
-0.053994
-0.0543914
-0.040146
-0.0262694
-0.0161298
-0.00935442
-0.00511391
-0.00504776
-0.00263084
-0.00263159
-0.00136698
-0.00137091
-0.00177699
-0.00344946
-0.0064592
-0.0113909
-0.0188588
-0.0292779
-0.039286
-0.0387386
-0.0389068
-0.0256713
-0.0158621
-0.00921796
-0.0092024
-0.00504444
-0.00510522
-0.00265843
-0.00252805
-0.00270129
-0.00369137
-0.00527124
-0.0070689
-0.00459666
-0.00491915
-0.0034892
-0.00236443
-0.00273056
-0.00176583
-0.00173948
-0.00174518
-0.00100792
-0.00110279
-0.000704249
-0.000948115
-0.00133307
-0.00134146
-0.00107665
-0.00066206
-0.000657956
-0.000798153
-0.000749434
-0.000758383
-0.000804038
-0.00064732
-0.0011156
-0.000803628
-0.000796042
-0.000652022
-0.000797666
-0.000803387
-0.000740824
-0.000739482
-0.000743609
-0.000774686
-0.000739286
-0.000743269
-0.000797714
-0.00079659
-0.000660214
-0.000692548
-0.000746485
-0.0010742
-0.000682451
-0.000628838
-0.00133885
-0.00133317
-0.00117467
-0.000900889
-0.00132823
-0.0013341
-0.00177022
-0.00167447
-0.00145214
-0.00328282
-0.00286137
-0.00345859
-0.00339992
-0.00649666
-0.0063987
-0.00667248
-0.00912276
-0.00977925
-0.0127305
-0.0170336
-0.0214723
-0.0144581
-0.0158835
-0.0120089
-0.00842182
-0.00965558
-0.006165
-0.00539855
-0.0108726
-0.00956552
-0.011459
-0.0113277
-0.0114937
-0.0113602
-0.0189706
-0.0188498
-0.0292824
-0.0292636
-0.0279514
-0.0251856
-0.029594
-0.0264687
-0.0165599
-0.00968764
-0.00530619
-0.00273605
-0.00270409
-0.00266781
-0.00370864
-0.00523243
-0.00514504
-0.00696322
-0.00954077
-0.00936901
-0.00696367
-0.00370897
-0.00270707
-0.00270178
-0.00266537
-0.00191807
-0.00372119
-0.00698257
-0.0123041
-0.0122745
-0.0162855
-0.0159695
-0.0202365
-0.0259865
-0.0254406
-0.031178
-0.0386614
-0.0394228
-0.042259
-0.0689793
-0.0497597
-0.072973
-0.052968
-0.0517247
-0.0691362
-0.0521962
-0.0720739
-0.0767562
-0.0806833
-0.0775141
-0.105726
-0.0740155
-0.0660674
-0.0621029
-0.0806685
-0.0815815
-0.0590205
-0.0662834
-0.0773862
-0.0815316
-0.0756555
-0.0740071
-0.105114
-0.0778501
-0.0809324
-0.0810921
-0.0813032
-0.0809817
-0.0775429
-0.0807557
-0.0722551
-0.064971
-0.0773654
-0.0504071
-0.0491171
-0.0532126
-0.0796269
-0.0523739
-0.0513547
-0.052271
-0.0800932
-0.0524371
-0.0515913
-0.0519485
-0.0799603
-0.0536583
-0.0592505
-0.101465
-0.0814944
-0.0762278
-0.0617472
-0.0586171
-0.0726074
-0.051986
-0.0451912
-0.0311747
-0.0202125
-0.0122562
-0.0069527
-0.00370321
-0.00190397
-0.00270074
-0.00272946
-0.00236435
-0.00348613
-0.00491202
-0.00459704
-0.00666671
-0.00911189
-0.00976968
-0.0127248
-0.0170193
-0.0214645
-0.0119664
-0.0158813
-0.00955549
-0.0118439
-0.00696479
-0.00912704
-0.00539215
-0.00655948
-0.00615488
-0.00586957
-0.00830861
-0.00836028
-0.0108546
-0.0122897
-0.0113305
-0.0157988
-0.0148439
-0.0201515
-0.0201476
-0.0187438
-0.0255364
-0.023809
-0.0316794
-0.0289952
-0.0388248
-0.0356021
-0.0468335
-0.046934
-0.042188
-0.0544996
-0.0491513
-0.0542736
-0.0543354
-0.0421876
-0.0468324
-0.0468746
-0.0542005
-0.0490879
-0.0518854
-0.0423785
-0.0292031
-0.0189106
-0.0114614
-0.00650202
-0.00346324
-0.00328077
-0.00616128
-0.00649472
-0.00639308
-0.0114556
-0.0113189
-0.0119986
-0.0158674
-0.0144608
-0.0202309
-0.0259114
-0.0278208
-0.0339473
-0.0426834
-0.0503576
-0.0293448
-0.039403
-0.024778
-0.0320265
-0.0193039
-0.025878
-0.0158758
-0.0200748
-0.0181238
-0.0172882
-0.0235415
-0.0231362
-0.0292313
-0.0324422
-0.029182
-0.0388048
-0.0355443
-0.0473912
-0.0466979
-0.0422335
-0.0546618
-0.0489157
-0.0541693
-0.0589395
-0.0425029
-0.0471952
-0.0443523
-0.0489576
-0.0485374
-0.0513367
-0.0454168
-0.0386998
-0.0405613
-0.0483119
-0.0554562
-0.0361478
-0.0422056
-0.0291888
-0.0187955
-0.0113495
-0.00643326
-0.00343376
-0.00176795
-0.000961649
-0.000730648
-0.000736666
-0.000675167
-0.000524407
-0.000637702
-0.000819673
-0.000768262
-0.000916701
-0.000534938
-0.000667215
-0.000891658
-0.000879921
-0.000801308
-0.000953712
-0.00133251
-0.00123637
-0.00174867
-0.00174369
-0.00252321
-0.00244623
-0.0034855
-0.00347598
-0.00339069
-0.00490148
-0.00458591
-0.00665025
-0.00508985
-0.00503033
-0.00490193
-0.00263065
-0.00252496
-0.00191208
-0.00190988
-0.00105132
-0.000789556
-0.000807715
-0.000758287
-0.000790216
-0.000808934
-0.00100454
-0.0008001
-0.00115685
-0.00116927
-0.00179327
-0.00173623
-0.0025283
-0.00243706
-0.00346898
-0.00349026
-0.00341072
-0.00490213
-0.00475464
-0.00666022
-0.00639567
-0.00906813
-0.00868959
-0.0119574
-0.0119565
-0.0112806
-0.0157402
-0.0155293
-0.00912657
-0.00906869
-0.00682037
-0.00681508
-0.00366539
-0.00265018
-0.00253314
-0.00137652
-0.00135273
-0.00105082
-0.00134646
-0.00154745
-0.00185448
-0.001903
-0.00259895
-0.00256863
-0.00364665
-0.00310576
-0.00447083
-0.00456328
-0.00683399
-0.00640182
-0.00910151
-0.00866605
-0.011949
-0.0119838
-0.0113249
-0.0157338
-0.0148816
-0.0201239
-0.0187022
-0.0255669
-0.0238068
-0.0316714
-0.0317211
-0.0289821
-0.0388194
-0.0291668
-0.0259167
-0.0162317
-0.0159519
-0.0122602
-0.00695496
-0.00370442
-0.00190474
-0.00266568
-0.0027017
-0.00522727
-0.00529249
-0.00346487
-0.00650533
-0.0114672
-0.0164939
-0.0162697
-0.00953077
-0.0093617
-0.00514086
-0.00522653
-0.00270214
-0.0024507
-0.00252984
-0.00174394
-0.00252568
-0.00348874
-0.0034053
-0.00490105
-0.00490703
-0.00348662
-0.00348757
-0.00341133
-0.00490281
-0.00491462
-0.00349086
-0.0025326
-0.00174716
-0.00252493
-0.00175498
-0.0017501
-0.00175179
-0.00175063
-0.00174426
-0.00252465
-0.00252489
-0.00244905
-0.00348098
-0.00340676
-0.00490294
-0.00490216
-0.00475454
-0.00665273
-0.00640377
-0.00907827
-0.00906829
-0.00906598
-0.00907534
-0.00639701
-0.00666432
-0.0066614
-0.00475708
-0.00666243
-0.00641054
-0.00906873
-0.00909735
-0.0066711
-0.00473955
-0.00491779
-0.00502928
-0.00339907
-0.00347121
-0.00243914
-0.00252844
-0.00257201
-0.00173619
-0.00174875
-0.00174597
-0.00135163
-0.000953126
-0.00133292
-0.00123716
-0.00134585
-0.000953032
-0.00134287
-0.00123616
-0.00133351
-0.000951405
-0.00134658
-0.00174472
-0.0017417
-0.00122171
-0.00137354
-0.00104444
-0.000786513
-0.000523193
-0.000753688
-0.000721269
-0.000739004
-0.000740724
-0.000522225
-0.000789003
-0.000814403
-0.000720817
-0.000756326
-0.000524092
-0.000952465
-0.000719288
-0.000703832
-0.000649425
-0.000897498
-0.000860392
-0.000836081
-0.000837377
-0.000857571
-0.000801904
-0.00087574
-0.000889269
-0.000627756
-0.000717435
-0.000950277
-0.000703456
-0.00109735
-0.00100837
-0.00176792
-0.001772
-0.00346546
-0.00650485
-0.00952611
-0.00869984
-0.0119665
-0.0113009
-0.0157329
-0.0157505
-0.0157339
-0.0158054
-0.0113277
-0.0119733
-0.0119853
-0.00867428
-0.00910301
-0.00933937
-0.0064027
-0.00664308
-0.00683673
-0.00456946
-0.00447708
-0.00602841
-0.00587935
-0.00831872
-0.0108701
-0.0104369
-0.0144728
-0.0183823
-0.0173133
-0.0235677
-0.0292641
-0.0269502
-0.035637
-0.0373379
-0.0314237
-0.0248597
-0.0202121
-0.0155168
-0.012181
-0.00908873
-0.00688097
-0.00499625
-0.00365087
-0.00310967
-0.00312645
-0.00357725
-0.00234657
-0.00228661
-0.0015506
-0.00154085
-0.00185631
-0.00260086
-0.00134702
-0.00115835
-0.00117114
-0.00137357
-0.00095054
-0.00132337
-0.00122465
-0.00137767
-0.0010489
-0.000790108
-0.000535643
-0.000668379
-0.000916806
-0.000524789
-0.000820742
-0.000800627
-0.00100465
-0.000808956
-0.000638255
-0.000768576
-0.0008796
-0.000802392
-0.000891443
-0.000807265
-0.000787838
-0.00104678
-0.00190275
-0.00190014
-0.00366245
-0.00683644
-0.0120339
-0.0113316
-0.0158018
-0.0162691
-0.0122949
-0.0119578
-0.00921436
-0.0050751
-0.00265413
-0.00264862
-0.00365403
-0.00679466
-0.0119303
-0.0157062
-0.0148581
-0.020148
-0.018748
-0.0255324
-0.0257153
-0.0256445
-0.0266178
-0.0187851
-0.0201664
-0.0206835
-0.0143716
-0.0119715
-0.0159848
-0.0158135
-0.0255524
-0.0258469
-0.0259305
-0.0278428
-0.0339525
-0.0247979
-0.0277636
-0.0179561
-0.0158904
-0.0189207
-0.0187944
-0.02025
-0.0292325
-0.0292205
-0.0319707
-0.0232513
-0.0263593
-0.0189195
-0.0292138
-0.0393292
-0.0386808
-0.0259716
-0.0254363
-0.0159596
-0.0162546
-0.0202184
-0.0202784
-0.0202368
-0.012275
-0.00954944
-0.00953042
-0.00522723
-0.00514023
-0.0052238
-0.00529027
-0.00965156
-0.00842335
-0.00931492
-0.00510544
-0.00504878
-0.00506579
-0.00508855
-0.00264192
-0.00263275
-0.00136669
-0.00136893
-0.000801088
-0.00265684
-0.00924776
-0.0092124
-0.0158314
-0.0159044
-0.0160306
-0.0257075
-0.0255798
-0.0258717
-0.015997
-0.0319335
-0.0396128
-0.0349314
-0.0471678
-0.0393297
-0.0387795
-0.0540741
-0.0542056
-0.0550401
-0.069988
-0.0957653
-0.0972643
-0.0547521
-0.0693917
-0.0966977
-0.0782311
-0.060602
-0.0768823
-0.0777353
-0.0616265
-0.0590828
-0.102189
-0.0797121
-0.0770904
-0.100983
-0.0861315
-0.0862095
-0.0811399
-0.0767981
-0.052422
-0.0722701
-0.0518321
-0.0450918
-0.0311777
-0.0260056
-0.0162992
-0.0162683
-0.0189704
-0.0189153
-0.0187803
-0.0292248
-0.0292019
-0.0277519
-0.0179468
-0.0108664
-0.0162535
-0.0206747
-0.0187833
-0.025641
-0.0237768
-0.0318787
-0.0316772
-0.0290558
-0.0387309
-0.0355784
-0.0388267
-0.029185
-0.0188992
-0.0162466
-0.0164871
-0.0263497
-0.0232571
-0.0259683
-0.0254332
-0.0159575
-0.00936044
-0.00952117
-0.00650069
-0.00346319
-0.00177057
-0.00253118
-0.00264075
-0.00348536
-0.00137337
-0.0017545
-0.00134679
-0.000814789
-0.000860976
-0.000742007
-0.000518276
-0.000793855
-0.00105599
-0.00504438
-0.00506649
-0.00491386
-0.00366661
-0.00499233
-0.00601862
-0.00687324
-0.00684345
-0.00908175
-0.00932941
-0.012168
-0.0104222
-0.0144557
-0.0143542
-0.0183578
-0.0155048
-0.0201912
-0.0199062
-0.0120461
-0.00919781
-0.00909468
-0.00914741
-0.00907448
-0.0119662
-0.0156768
-0.0157995
-0.0155628
-0.0201271
-0.0197238
-0.0250263
-0.0257035
-0.0248419
-0.0265948
-0.0313943
-0.0269149
-0.035603
-0.035077
-0.0410819
-0.0373165
-0.0308777
-0.0448592
-0.0582616
-0.0584008
-0.0596167
-0.0649373
-0.0609064
-0.0512389
-0.0373416
-0.0391161
-0.0304818
-0.0441978
-0.0575386
-0.065821
-0.0619279
-0.0506974
-0.0367873
-0.0247589
-0.0317102
-0.0255754
-0.0197261
-0.0119716
-0.0304787
-0.0442244
-0.0576438
-0.0661005
-0.061997
-0.050707
-0.0367454
-0.0247104
-0.0255641
-0.0251364
-0.0157637
-0.00925186
-0.00640953
-0.00342515
-0.00176311
-0.00160071
-0.00328402
-0.0112799
-0.0185802
-0.0286645
-0.0374879
-0.051447
-0.0580286
-0.0673912
-0.0617664
-0.0509056
-0.0568039
-0.0603635
-0.0575429
-0.0443108
-0.0439816
-0.0303411
-0.0196344
-0.0119114
-0.00678244
-0.00364612
-0.00189813
-0.00190138
-0.00104854
-0.00137661
-0.00137523
-0.000813471
-0.000896725
-0.000804551
-0.000787211
-0.00104418
-0.00189173
-0.00264813
-0.00243429
-0.00346035
-0.00348833
-0.00346107
-0.00270041
-0.0026637
-0.00132734
-0.00269684
-0.00272569
-0.00167036
-0.000922087
-0.00105025
-0.0014043
-0.000980846
-0.00327596
-0.00528405
-0.0052236
-0.00513713
-0.00521725
-0.00951047
-0.00935551
-0.00952174
-0.0064994
-0.0114592
-0.0114637
-0.0189092
-0.0259409
-0.023819
-0.0255829
-0.0187005
-0.0255426
-0.031718
-0.028987
-0.0387543
-0.0388453
-0.0316583
-0.0317446
-0.0290582
-0.0387109
-0.0391376
-0.0316712
-0.0237988
-0.031902
-0.0324541
-0.0231624
-0.0193097
-0.0250738
-0.0198864
-0.0308476
-0.0448117
-0.0454448
-0.0513473
-0.0583982
-0.0596321
-0.0582052
-0.0649676
-0.0609038
-0.0513022
-0.0374082
-0.0303919
-0.0196653
-0.0248289
-0.0156085
-0.0201477
-0.0201193
-0.0201386
-0.02012
-0.0187421
-0.0256273
-0.0255603
-0.0238178
-0.0316901
-0.0290691
-0.0389271
-0.0388143
-0.035606
-0.0468233
-0.0470143
-0.0469009
-0.0355673
-0.0393219
-0.0386912
-0.0311818
-0.031235
-0.0377895
-0.0450925
-0.0423461
-0.0424198
-0.0693072
-0.0512466
-0.0492477
-0.0721061
-0.076681
-0.0805047
-0.0775741
-0.0810769
-0.0813414
-0.076224
-0.05148
-0.071145
-0.0501769
-0.0694521
-0.0697333
-0.0694564
-0.0697374
-0.0694467
-0.0617172
-0.0800974
-0.105156
-0.0549557
-0.078158
-0.0846387
-0.080975
-0.0862757
-0.0810388
-0.0765924
-0.102261
-0.0789998
-0.0538403
-0.0593173
-0.1017
-0.0587345
-0.072448
-0.0535802
-0.0700933
-0.0503065
-0.0451636
-0.0378166
-0.0386752
-0.0386833
-0.0393179
-0.038644
-0.0259299
-0.0386574
-0.0378531
-0.025435
-0.0259441
-0.0162501
-0.0164673
-0.0189128
-0.0292302
-0.0291952
-0.0386549
-0.0423859
-0.0402333
-0.036169
-0.060619
-0.0425096
-0.0541727
-0.0553343
-0.0505612
-0.0540166
-0.0615974
-0.0694449
-0.0510176
-0.0491047
-0.0722922
-0.051839
-0.0503095
-0.0697326
-0.0513496
-0.0713459
-0.0763471
-0.0767737
-0.0807071
-0.0723993
-0.0800613
-0.10509
-0.0781507
-0.0809981
-0.0811502
-0.0812664
-0.0814581
-0.0763426
-0.051794
-0.0713455
-0.0784643
-0.08132
-0.078435
-0.0764781
-0.0516858
-0.0715505
-0.0504426
-0.0700857
-0.0703524
-0.0635554
-0.0424195
-0.0423748
-0.0633658
-0.0630553
-0.0403249
-0.0425039
-0.0423762
-0.0518893
-0.0630243
-0.0632754
-0.063579
-0.0586913
-0.067913
-0.050434
-0.0367101
-0.0306106
-0.0197974
-0.0119972
-0.00681673
-0.00364947
-0.00506672
-0.00666645
-0.00662738
-0.00473241
-0.00615472
-0.00964039
-0.00866194
-0.0119286
-0.0119819
-0.0113198
-0.0157701
-0.0157384
-0.0119578
-0.00869615
-0.0119727
-0.00916959
-0.00678292
-0.00365048
-0.00505957
-0.00505666
-0.00264663
-0.0091746
-0.0119022
-0.0196099
-0.0302941
-0.0368796
-0.0469344
-0.0467612
-0.0469156
-0.0368342