/*--------------------------------*- C++ -*----------------------------------*\
| =========                 |                                                 |
| \\      /  F ield         | OpenFOAM: The Open Source CFD Toolbox           |
|  \\    /   O peration     | Version:  2306                                  |
|   \\  /    A nd           | Website:  www.openfoam.com                      |
|    \\/     M anipulation  |                                                 |
\*---------------------------------------------------------------------------*/
FoamFile
{
    version     2.0;
    format      ascii;
    arch        "LSB;label=32;scalar=64";
    class       volScalarField;
    location    "1.3";
    object      gradTx;
}
// * * * * * * * * * * * * * * * * * * * * * * * * * * * * * * * * * * * * * //

dimensions      [0 -1 0 1 0 0 0];

internalField   nonuniform List<scalar> 
5322
(
-0.0176742
0.0011543
0.00117396
-2.20818e-05
-8.0061e-05
-6.19519e-05
-3.80614e-05
-2.20403e-05
-1.28682e-05
-6.32841e-06
-1.86371e-06
1.02078e-05
1.2863e-05
-0.000168657
1.07048e-06
0.000350653
-0.000269002
1.3128e-05
-0.000240413
0.000299566
-0.000390403
0.000665969
-0.000696351
0.00130977
-0.00136963
0.00228728
-0.00230516
0.00390265
-0.00395362
0.00602423
-0.00572628
0.00937649
-0.0068791
0.0144851
0.0016128
0.0225445
0.0160135
-0.00634134
0.0174675
-0.00105381
-0.0165901
0.0166154
-0.00100475
-0.0176596
0.0175856
-0.00059396
-0.018762
0.0165864
-0.000374802
-0.0197083
-0.0196144
-0.02807
-0.00946251
0.0174154
-0.00115412
-0.028327
-0.000888595
0.0268813
-0.000321025
-0.0268697
-0.00011348
0.0261782
-0.000130895
-0.0263922
3.93495e-05
0.0258449
0.000402999
-0.0261444
0.00146056
0.0216159
0.0013819
-0.0198729
0.0225908
-0.0232449
0.0223644
-0.0227862
0.0228012
-0.0228292
0.0260238
-0.0191923
0.0088901
-0.0145138
-0.00993497
0.0149608
0.00115445
-0.00597609
0.0112343
-0.0313211
-0.00931965
0.0335481
-0.00154461
0.000254286
0.000426532
0.00332553
0.01845
-0.00339802
0.000565804
-0.000987349
0.0115518
-0.027625
-0.0275454
0.0550717
-0.00102104
0.0142936
0.0233624
0.000830011
0.000300295
0.00019535
8.79089e-05
2.32169e-05
-2.18414e-06
-8.79549e-06
-8.72373e-06
-6.33966e-06
-6.98346e-07
-2.44265e-06
-0.000110653
-0.000102838
1.62932e-05
6.05097e-05
3.84071e-07
8.55332e-05
-0.0001038
-8.77573e-06
-3.00258e-05
0.000162112
0.000129451
3.11648e-05
0.000102863
6.1891e-05
4.51376e-05
0.000110753
5.04432e-05
5.46946e-05
0.000112548
4.27692e-05
9.00568e-05
0.000128124
0.000142375
5.5097e-06
-0.00010925
2.67882e-06
7.76234e-05
-0.000100038
-0.000112933
2.08467e-05
3.8706e-05
1.74356e-05
-8.78044e-05
-9.7562e-05
2.4143e-05
2.07653e-05
2.73737e-05
-9.67968e-05
-8.94618e-05
2.4533e-05
1.03884e-05
4.83891e-05
-9.73714e-05
0.000128792
-0.000311321
-0.000403565
0.000480084
-0.00072139
-4.32722e-05
-0.000359978
9.38006e-06
0.000299089
-6.67305e-05
0.000278843
0.000136106
0.00020598
-0.000374359
0.000131063
-0.000324528
0.000285892
0.000371356
-0.000607719
6.10072e-05
-0.00051743
0.000643758
0.000801949
-0.00118641
8.11418e-05
-0.000996223
0.00131967
0.00161645
-0.00226605
0.000151045
-0.00189454
0.0024989
0.00304302
-0.00410911
0.000260629
-0.00343576
0.00437031
0.00533702
-0.0070473
0.000418462
-0.00590214
0.00707072
0.00871789
-0.0113991
0.000641128
-0.00952737
0.0105688
0.0132475
-0.0171314
0.000961428
-0.0141243
0.0142655
0.0177556
-0.00297533
0.0110567
-0.0273352
-0.027882
0.0552911
-0.00248604
-0.00264202
0.000507439
0.00361912
0.0183819
-0.00243534
0.000753347
-0.00299709
0.0106238
-0.0277863
-0.0274209
0.0549508
-0.0014085
0.0142824
0.000541533
0.000472636
0.000230531
0.000115206
3.84748e-05
4.46959e-06
-6.339e-06
-8.01883e-06
-6.01856e-06
-8.009e-07
-2.45398e-06
8.42303e-05
-9.54952e-05
9.63193e-05
-8.34187e-05
1.01175e-06
8.29689e-05
-7.51825e-05
5.57852e-07
-8.59836e-05
3.01103e-07
-8.18782e-05
2.31667e-07
7.61783e-05
2.96312e-06
7.9518e-05
-7.13888e-06
-8.7564e-05
-1.70615e-07
8.62624e-05
8.91229e-08
2.28938e-07
0.000166042
-0.000334779
0.000335742
-0.000328952
0.000461808
-0.000642018
0.000949774
-0.00131581
0.00187865
-0.00254467
0.0035062
-0.00460586
0.00614547
-0.00779451
0.0101069
-0.0123079
0.0155173
-0.0178542
0.0218739
-0.0130177
0.000340891
0.0132042
0.000389393
-0.0212916
0.0174066
0.000106407
-0.0150364
0.0120691
6.19251e-05
-0.00978635
0.00766546
3.61306e-05
-0.00594753
0.00453319
2.02216e-05
-0.00339095
0.00250505
1.13637e-05
-0.00181425
0.00129641
6.71004e-06
-0.00091425
0.00063686
3.89572e-06
-0.000442374
1.00056e-06
0.000444665
-0.000633386
-2.06648e-06
-0.000459213
0.00033018
-9.84194e-07
-0.000167111
-1.10844e-05
0.00016861
-0.00034728
0.00044056
-0.000633922
0.000901388
-0.00127512
0.00179528
-0.00245101
0.00336715
-0.00442216
0.00593265
-0.00746308
0.00983451
-0.0117208
0.0152465
-0.0167638
0.0215523
-0.012868
-0.00328072
0.0053597
0.000580432
-0.0200825
0.0153342
0.000102373
-0.0137545
0.0109278
-6.70819e-05
-0.00866318
0.00686989
-8.21469e-05
-0.00522107
0.00402555
-6.15796e-05
-0.00297795
0.00222137
-4.55591e-05
-0.00159355
0.0011578
-3.28358e-05
-0.000801578
0.000577023
-2.50107e-05
-0.000386947
0.000268025
-2.91161e-08
-8.39715e-05
0.000135445
0.000226404
-2.36134e-05
1.91865e-05
-4.30219e-05
0.000137822
-0.000430105
0.000429757
-0.000732314
-0.000493261
-0.000619445
6.34026e-05
0.000300776
0.000336694
-0.00036785
0.000124833
-0.000321821
-3.75158e-05
4.36231e-06
-0.000112644
8.17094e-06
-5.26753e-06
-0.000112829
-1.21575e-05
-3.63891e-05
-0.000334446
-0.000363342
0.000346634
-0.00060274
-4.66062e-05
0.00077595
-0.00118017
0.00158769
-0.00225665
-0.000186805
0.00300873
-0.0040964
0.00528676
-0.00702984
-0.000151491
0.00862569
-0.0113241
0.0130219
-0.016771
0.00347997
0.000501199
4.12547e-05
7.71072e-05
-0.000173071
-0.000129765
0.00895937
-0.011629
0.000721866
-0.00943148
0.00985877
0.0136235
-0.0168366
0.00118648
-0.0148111
0.0126673
0.025484
-0.00183222
0.00152581
-0.0299947
-0.0279201
0.0527003
-0.00364742
0.000453856
0.000842397
-0.0117342
0.00219732
0.00618016
-0.00643498
0.000387642
0.00430017
-0.00380701
-4.99067e-06
0.00250271
-0.00229886
-4.41307e-05
0.00131576
-0.00126407
-5.60206e-05
0.00072634
-0.000648497
-5.28448e-05
0.000384566
-0.000277965
-4.24054e-05
0.000250503
8.0299e-05
5.39258e-05
-5.0054e-06
-2.59311e-06
0.000163733
-6.83424e-05
0.000958516
-0.00142963
0.0019711
-0.00274404
-0.00176989
-0.00231853
0.000154465
0.00129781
0.00163077
-0.0012104
8.3114e-05
-0.000926408
-7.88041e-05
-3.98929e-05
-1.60559e-05
-2.91898e-05
-5.28019e-05
3.37438e-05
1.48901e-05
-4.63245e-05
-0.000236814
-7.51097e-05
0.000145888
0.000190993
0.000166101
6.08464e-05
0.000306318
0.000100576
0.00014305
0.000168283
-0.000198572
-0.000444447
-0.000769301
-0.000398205
0.000247257
-0.000200934
4.14674e-05
0.000459575
-0.0004086
0.00373619
-0.00498755
0.00659551
-0.0086296
-0.00563628
-0.00724336
0.000443334
0.00420973
0.00546474
-0.00421568
0.000269735
-0.00323445
-0.00017562
-6.79331e-05
-6.22035e-05
-7.95524e-05
-0.000193299
-9.80829e-06
-5.73411e-05
-0.000113444
-3.37616e-06
-2.26303e-05
0.000271741
2.04818e-05
-5.13771e-05
-4.80301e-06
9.18745e-06
2.95834e-06
-9.1792e-06
1.73012e-05
-0.000205095
-2.30858e-05
-1.36784e-05
-4.32995e-06
-3.18689e-06
0.000646246
3.96576e-06
-0.000944568
0.000920079
-0.00128781
-1.54928e-06
0.00132721
1.05196e-05
-0.00186842
0.00182869
-0.00248607
1.94616e-06
0.00257109
2.14141e-05
-0.00348602
0.0034238
-0.00449425
1.06803e-05
0.00466218
4.13504e-05
-0.00610967
0.00601554
-0.00759193
2.98889e-05
0.00790486
6.868e-05
-0.0100499
0.00990972
-0.0119444
6.852e-05
0.0124794
5.68434e-05
-0.0154171
0.0152011
-0.0172464
0.000115551
0.0179442
-0.00013052
-0.0216687
0.0213637
-0.0130923
-3.34123e-05
0.01298
-0.000939188
-0.00228299
-0.00169139
-0.0027881
-0.026825
0.00542819
0.00327864
-0.00202756
-0.00405128
-0.00119385
-0.0198619
0.00464897
-0.0088777
-0.011559
-0.00188764
-0.00344981
-0.00462865
-0.00238468
-0.00128833
0.000604779
-0.000685322
-0.00132302
-0.00121894
-0.0007049
-0.000418739
-0.000238047
-7.45579e-05
0.000175821
0.000166144
0.000171025
0.000196343
0.000277474
0.000265771
0.00018249
0.000183968
0.000130833
-0.000115015
3.48896e-05
-1.29444e-05
-8.91801e-06
3.17094e-05
-0.000100158
-2.49712e-07
3.66647e-09
-1.04715e-07
4.11537e-07
-6.40067e-05
-7.47913e-05
-7.46587e-05
-6.4258e-05
6.47873e-05
-5.05237e-05
3.26985e-06
7.60692e-05
-6.09593e-05
-6.07352e-05
3.38461e-06
7.53476e-05
3.80837e-07
8.63691e-07
9.33851e-07
8.23809e-07
-4.74689e-06
1.10271e-06
-2.24552e-06
-1.91753e-06
2.80814e-06
1.70222e-05
4.95521e-05
-2.00212e-06
-8.88633e-05
-0.000414045
0.000142929
-0.000229422
0.00119848
-0.00166993
0.0110399
-0.0140488
0.0176148
-9.78902e-05
-0.00498622
-0.00100646
0.00139381
8.57663e-05
0.000596364
0.000864677
-0.00220513
-0.00416001
-0.00825812
-0.0193644
-0.019964
-0.0447027
-0.0175341
-0.0148658
-0.000191146
-0.00569408
0.00552342
-0.0400241
-0.0244993
-0.0119836
0.0173787
0.00139322
0.00071931
-0.0176749
0.0186048
0.000131246
-0.0023238
-0.0192606
0.0186538
3.78309e-05
-0.00256817
-0.0188132
0.0185969
0.000144305
-0.00410913
-0.0179664
0.0132775
-0.0115955
0.0101954
0.00778542
0.0218895
-0.0102991
-0.00568485
0.00320784
0.0122555
-0.0367061
-0.00173753
-0.021275
0.0211138
0.0204841
0.0186669
0.0236301
0.0102684
0.00148315
0.00846048
0.0122477
0.0190336
-0.00606893
0.00162878
0.0104475
-0.00610718
0.000125586
0.00621699
-0.00407123
2.02204e-05
0.00382555
-0.0023799
2.75794e-05
0.00227336
-0.00131923
2.12186e-05
0.00127405
-0.000698685
8.39755e-06
0.000658366
-0.00037494
-1.44993e-05
0.000298031
-0.000235288
-7.42377e-05
3.08642e-05
-0.000225397
-0.000137186
8.51762e-05
-0.000266917
0.000393538
-0.000571707
2.57118e-05
-0.000439422
0.000347561
1.21714e-06
-0.000167597
1.15155e-05
0.000167639
-0.000165337
1.76344e-06
2.12249e-06
8.77327e-07
1.28718e-06
3.13704e-06
6.5186e-06
1.95368e-05
3.73647e-05
7.17707e-05
-0.000291351
-2.20559e-06
-0.000121139
0.000775062
-0.000788147
9.79723e-05
7.56575e-05
0.00038937
0.000409563
0.00242
0.00310226
-0.000185589
-0.00188992
0.00250501
0.000261428
-0.0034314
0.00436943
0.000421553
-0.00591832
0.00705083
0.000649103
-0.00964083
0.0105053
0.000964376
-0.0145028
0.000623298
0.000943534
-0.002198
-0.00220177
-0.0078203
-0.00390626
-0.00213313
-0.00120672
-0.000706038
-0.000423539
-0.000241588
-7.78461e-05
0.00017251
0.00016076
0.000163973
0.000265678
0.000165524
-7.84854e-05
-0.000243111
-0.000437752
-0.000737701
-0.00124554
-0.0021585
-0.00391181
-0.00759004
-0.0176512
-0.0184189
-0.0314755
-0.0258448
-0.00871567
-0.00865969
0.0157812
0.00164384
-0.00197013
-0.00157064
0.00730638
0.000239001
-0.00596901
-0.0056984
0.00582822
-1.09542e-05
-0.00653374
-0.00624002
0.00514691
8.8341e-06
-0.00811475
-0.00773334
0.00259644
-0.0114579
0.00805177
0.00782066
0.00816526
0.00715486
-0.00973637
0.000755192
0.00343475
-0.0113982
0.00258191
-0.0105628
0.0120601
-0.0259133
-0.00103282
-0.0249495
0.0195349
0.0210282
0.0201046
0.0197113
0.0203523
0.0196167
-0.0270243
-0.00126473
-0.0243694
0.0150666
0.0161749
0.0151319
0.0159747
-0.00103944
-0.0260062
-0.0258272
0.012095
0.020145
0.018809
0.0177158
0.022121
0.0221466
0.0171165
0.00484818
0.00997004
0.00424266
-0.00237695
0.00358718
0.000878854
-0.00264057
0.00178518
0.000301848
-0.00186356
0.0011305
0.000194985
-0.00121808
0.000667325
0.000108651
-0.000724899
0.000394953
7.9673e-05
-0.000415267
0.000198547
3.04044e-05
-0.000227722
9.134e-05
3.80003e-06
-0.000138248
1.94512e-05
-4.78874e-05
-0.000131532
-5.66641e-05
-0.000162311
-0.00019725
-0.000191729
-0.00012877
-9.01663e-05
-0.000142365
-5.31446e-06
0.000109338
-7.95389e-05
8.68842e-06
8.94938e-05
-8.84866e-05
3.91494e-06
9.2692e-05
-9.56504e-05
-3.81966e-06
-7.6906e-06
-0.00017984
-9.94498e-07
-0.000343106
7.74217e-07
-0.000448382
4.6206e-06
0.000643213
-0.000649668
-4.68202e-07
-0.000903444
3.64782e-05
0.00128601
-0.00115985
5.30015e-05
0.00162003
4.82343e-05
-0.00222479
8.77425e-05
0.00301236
7.0469e-05
-0.00401219
0.000137599
0.0052452
6.98955e-05
-0.00677272
0.000195645
0.00854529
8.19924e-05
-0.0106844
0.000278199
0.0130509
-5.73273e-05
-0.0155938
0.000478022
0.018483
-0.000103207
-0.000662826
-0.0230965
-0.0167428
0.00078581
0.0180137
-0.000320611
-0.0160351
-0.0111341
0.000626813
0.0126858
-0.000190535
-0.0104567
-0.00719493
0.000386836
0.00812088
-0.000128734
-0.00639302
-0.00437913
0.000243017
0.00484396
-6.91977e-05
-0.00364128
-0.00249899
0.000144489
0.00269387
-4.07058e-05
-0.00193439
-0.00133276
7.32257e-05
0.00141468
-1.57363e-05
-0.000945645
-0.000666209
3.51449e-05
0.00072695
4.0553e-06
-0.000426199
-0.000306797
3.53646e-05
0.000427238
4.44596e-05
-2.14011e-05
8.50628e-05
-0.000137235
-0.000225748
3.10993e-05
-7.52509e-05
2.58553e-05
0.000208882
-1.61745e-05
3.91261e-06
-0.000170262
1.85688e-06
0.000343784
-0.000333715
8.02142e-07
-0.000441809
2.60757e-05
-0.000578089
2.83266e-05
0.000818508
4.60888e-05
1.061e-05
7.12695e-06
6.44501e-06
0.000466869
6.29329e-06
-2.28343e-06
-7.52689e-05
1.64861e-07
8.46346e-05
8.59317e-07
5.84875e-07
5.25702e-07
-1.29176e-05
-1.51116e-05
-1.10379e-05
-0.000110178
-1.31117e-05
-3.56214e-05
-4.17971e-05
-4.08425e-05
-4.6749e-05
0.000787936
0.000651464
-4.01224e-05
0.000119862
4.58179e-05
3.91416e-05
0.000305168
6.15238e-05
-0.000521063
0.000658618
8.09012e-05
-0.000995711
0.00133079
0.00015065
8.08249e-06
-8.66774e-05
-0.000102134
-0.000144742
-0.000195969
-0.000247576
-0.000204807
-0.000149231
-8.89206e-05
-0.000101584
-8.56901e-05
-4.16523e-05
-4.82309e-05
-0.000507179
0.000643884
0.0010421
-0.00141005
0.00207451
-0.00270233
-7.20239e-05
-0.00154462
1.06718e-05
0.00119817
-4.87858e-05
-0.000777879
-9.66519e-06
0.000624368
-5.61537e-05
-1.83909e-05
-0.000608751
-5.43351e-05
0.000816208
-0.000925281
3.43359e-06
-0.00213538
-2.07712e-05
0.00287361
-0.0025449
6.43389e-06
-0.00348252
6.07354e-06
0.00462462
-0.00456227
2.72194e-06
-0.00594521
8.17435e-06
0.00763502
-0.00785053
-2.90132e-05
-0.00950522
9.96145e-05
0.0117482
-0.0144297
2.25911e-05
0.0171443
-0.0200395
-0.000196471
-0.000610228
-9.69895e-05
-1.54884e-05
2.38995e-05
2.77605e-05
2.19745e-05
1.53077e-05
9.2599e-06
2.20006e-06
2.96776e-06
-8.34597e-05
9.69546e-05
-9.49591e-05
-8.34531e-05
7.67774e-07
1.23137e-06
-4.27428e-06
4.46643e-06
7.80405e-05
2.9232e-07
-9.0453e-07
-7.11596e-06
7.93645e-06
-8.44637e-06
-0.000107191
-1.24431e-05
-4.0423e-05
0.000269958
6.42474e-05
-9.54256e-06
-5.303e-06
-1.38827e-07
-1.5162e-06
6.10372e-05
6.24451e-05
-2.18489e-06
5.07378e-05
8.45292e-05
-1.78854e-06
-2.50141e-06
-3.13261e-06
-2.22673e-05
-3.80751e-06
-9.1611e-05
0.000348246
1.15668e-05
-0.000537972
-8.41964e-06
0.000736471
-0.000656777
-2.0935e-06
-0.000950299
9.2565e-07
-0.00131111
5.07797e-07
-0.00183323
9.81001e-06
0.00251868
-0.00257588
-6.01668e-06
-0.00334513
7.63168e-05
0.00444619
-0.00583268
9.53089e-05
0.00747966
2.53563e-06
1.16741e-05
1.1556e-05
8.96776e-06
5.50666e-06
5.19294e-06
9.64086e-07
3.12207e-07
-3.35981e-06
-5.61725e-06
-5.1216e-06
-1.05401e-05
-2.70065e-06
-3.22379e-06
2.09892e-06
2.07608e-06
2.59433e-06
4.77585e-06
5.76736e-06
1.02198e-05
1.14859e-05
1.24263e-05
2.1786e-05
3.11864e-05
0.000131965
0.000198155
-0.000637076
0.000160077
-0.00106868
0.003518
-0.0228418
-0.00632197
0.000224731
-0.00207218
0.0109684
-0.0108465
-0.0325294
-0.0128168
1.51347e-05
0.00332237
0.000336508
-0.026034
-0.0114893
-0.00777713
0.0150143
0.00162584
-0.00170557
-0.00284413
0.00793503
0.000243282
-0.00557169
-0.006845
0.00682508
8.67509e-06
-0.00610645
-0.00717613
0.00635767
5.86467e-05
-0.0078372
-0.00814968
0.00150748
-0.000440381
7.46037e-05
7.60838e-05
0.0172008
-0.015591
0.000283262
0.0133886
-0.000378231
0.000205075
-0.0169185
0.000474402
-0.0104458
0.0126714
0.000264983
-0.0145484
-0.0255521
0.0184021
-0.00153959
0.00255511
0.00845122
-0.000235311
0.0204914
0.0149475
0.0167695
-0.0195538
0.000790784
-0.0165074
-0.000462627
-0.0182558
0.000947346
-0.0174947
-0.000469938
-0.0175891
0.000981998
-0.0187935
0.0155863
0.0152854
-0.00101816
-0.0315698
-0.0253507
0.0119584
-0.00852319
0.0120367
0.00695487
0.00818669
-0.010442
0.00287646
0.00222846
-0.0117223
0.00434948
0.00788601
-0.00986304
0.0168407
-0.00900892
0.00146827
-0.00863796
0.00131889
-0.00929468
-0.00726554
0.00122513
-0.000606394
-9.34704e-05
-4.62877e-05
1.51471e-05
4.04221e-05
3.52441e-05
2.48782e-05
1.62365e-05
9.52961e-06
2.21834e-06
3.08378e-06
-5.07752e-05
6.52978e-05
9.1948e-07
1.26326e-05
8.92419e-06
7.36801e-06
-7.94298e-05
-2.28603e-06
0.000101
-7.67128e-05
-3.88242e-05
0.000100199
-9.01862e-05
-0.000129432
-0.000142979
0.000113632
0.000109578
-5.38934e-06
-8.17347e-06
-3.11037e-05
4.71645e-06
0.000113676
-1.53671e-05
-2.25217e-05
-2.25448e-05
9.74338e-05
9.78634e-05
-2.30322e-05
-1.48032e-05
0.000115872
-4.90749e-05
-0.000116714
-4.95001e-05
0.000111822
1.42527e-05
1.272e-05
-3.90905e-06
1.27663e-05
2.65651e-05
0.000210004
-1.6469e-05
1.05958e-05
-7.38193e-07
-3.90752e-06
-8.31937e-06
-1.50173e-05
-2.83709e-05
-5.72888e-05
-0.000113852
2.02187e-05
-4.79989e-05
0.000116891
-0.000719905
-0.000187977
0.000848708
-0.00143974
-0.000488805
-0.000514153
-0.0155734
0.0149608
-0.000447091
-0.000340522
0.0010118
-0.000720743
-0.000361446
0.00274654
0.00491472
0.00263428
0.0142373
-0.00653223
0.00175998
0.0110882
0.0123109
-0.00337957
0.00132795
-0.000143043
0.000763226
-0.000182542
5.26719e-05
-0.00119324
-5.36493e-05
6.06019e-05
1.99427e-05
2.96665e-06
-1.91687e-06
6.92237e-06
2.71552e-08
5.05067e-06
4.6695e-06
7.01552e-06
5.75893e-05
0.000119047
0.000205488
0.000322829
0.000476266
0.000728586
0.000360815
0.00010612
0.000208798
0.00011663
4.97887e-05
2.04276e-05
1.49221e-05
7.49301e-06
1.55269e-05
1.11126e-05
-0.00089742
0.000811853
-0.00114528
0.00160369
-0.00219802
5.56214e-05
-0.00178032
0.00127798
3.62366e-05
8.5441e-06
5.88746e-06
8.50132e-07
0.00063545
6.12738e-06
-2.35702e-06
8.78864e-05
7.39363e-07
5.3619e-06
1.23649e-05
-1.93506e-05
0.00011326
8.85045e-05
-3.39429e-05
1.44456e-05
-9.23185e-08
-1.78721e-07
5.2217e-05
-2.06863e-06
-1.53434e-07
3.5778e-05
-0.000114768
3.13827e-05
8.41607e-07
1.31161e-05
9.40083e-06
1.03473e-06
-8.09169e-06
4.9396e-06
9.39847e-06
-3.40037e-05
-3.12427e-05
0.000113714
-3.92229e-05
-7.63139e-05
-1.96755e-05
0.000101422
-2.16072e-06
1.22674e-05
7.03059e-06
1.36206e-06
2.02929e-06
5.81669e-06
7.12173e-06
4.17762e-05
1.69839e-05
2.79958e-05
4.35759e-05
5.25796e-05
1.03004e-05
2.58251e-07
1.58131e-05
-1.98418e-07
0.0024583
-0.00332732
0.00298598
-0.00397625
0.0052205
-0.00675407
0.000142627
-0.00583487
0.0044381
8.85796e-05
1.07062e-05
7.735e-05
8.70618e-05
0.000123233
0.000127101
2.35403e-05
-1.50674e-06
1.9837e-05
2.03953e-05
3.33737e-05
2.87826e-05
4.11015e-05
9.69652e-05
0.000247413
0.000117099
0.000855479
0.000117937
4.63672e-05
1.50379e-05
1.49652e-06
-3.63705e-06
-9.61392e-07
-1.56126e-06
4.75218e-06
2.35703e-06
1.03318e-06
9.87178e-06
1.06287e-05
7.5658e-06
-7.3509e-06
-8.37502e-06
1.72056e-07
-4.26807e-07
-1.97451e-06
1.86506e-06
4.09736e-06
8.12112e-06
1.46149e-05
1.87871e-05
2.82321e-05
2.24143e-05
3.04565e-05
5.87436e-05
5.05822e-05
3.60654e-05
8.95349e-05
0.000243369
8.23883e-05
8.25573e-05
0.003395
-0.000571513
0.000385125
6.949e-05
0.000239315
0.00717494
-0.000273853
-0.00103987
0.00593236
0.00208616
-0.0259464
-0.0095391
-0.0159198
0.0160348
-0.0114911
-0.0123356
0.014508
-0.017027
-0.000920993
-0.00127745
-0.0165272
0.01483
-0.000113025
-0.000716936
-2.3449e-05
0.000284985
0.000384997
0.00627328
0.00222325
-0.0114013
-0.0106409
0.0175856
0.00156945
-0.00414511
-0.00127537
0.00683166
0.000170114
-0.00798479
-0.00518941
0.00520688
-1.74803e-05
-0.00829737
-0.00569808
0.00457337
-3.78621e-05
0.00728147
0.00707453
0.00040633
0.0100667
-0.00985669
8.46662e-05
-0.00770583
-6.13643e-05
-0.000131927
-1.93069e-05
7.44461e-06
1.44395e-05
1.11257e-05
6.78857e-06
3.68367e-06
1.71859e-06
-1.03207e-06
-4.12404e-06
8.45101e-05
-0.000978829
0.00133093
0.000153885
-0.00186869
0.00252024
0.00386847
-0.00490451
0.00675233
-0.00841023
-0.000150795
-0.0051509
0.000105661
0.00410394
-0.000110519
-0.00290178
4.11418e-05
0.00227865
-0.000306377
-0.000214775
-0.00229097
-0.000142341
0.00283138
-0.00322056
2.83917e-05
-0.00688663
-2.28703e-05
0.00881128
-0.00770759
2.47936e-05
-0.00982206
2.55303e-05
-0.012068
-2.17969e-05
-0.0146112
-4.62059e-05
0.0173569
-0.0180307
-1.649e-05
0.0204999
-4.65823e-05
-0.0201632
0.0200891
-6.21441e-05
-0.0175621
0.0177601
-0.0203492
-1.18e-05
2.1005e-05
0.00011189
7.68756e-05
3.17823e-05
9.03642e-06
1.06163e-07
-2.86354e-06
-4.41195e-05
-6.84891e-05
-0.000142594
-0.000179684
-0.000197376
-0.000246208
-0.00339269
0.00440767
0.000426254
-0.00582774
0.00714215
0.0110318
-0.0136548
0.0168258
-0.0206626
0.000306064
-0.014975
0.00146622
0.0110229
-0.000133147
-0.0088206
0.000356148
0.00696841
-0.000740862
-0.000400329
-0.00643209
-0.000138482
0.00800474
-0.0087744
0.000120286
-0.0169693
6.60979e-05
0.0204985
-0.0175382
-4.59796e-05
0.0203416
0.000135584
-0.023191
0.0136181
6.94467e-06
-0.0133168
0.0115177
-0.0154972
0.000387373
-0.00293815
-0.00145449
-0.00241673
-0.00399966
0.0155042
-0.0252058
0.00535297
-0.00621728
-0.00293776
-0.00160516
-0.00095491
-0.000575526
-0.000333393
-0.000164933
3.73144e-06
0.00054133
0.000238427
-0.000122777
8.39541e-05
2.94691e-05
0.000322383
-0.00028858
0.000261377
-1.65847e-05
-0.000175595
5.90087e-06
0.000366582
-0.000356569
-3.06393e-06
-0.000465575
1.7014e-07
-0.000644311
-1.1328e-08
-0.000924892
7.39643e-06
0.0013066
-0.00133255
-2.69161e-06
-0.00179298
5.23645e-05
0.0024707
1.29481e-05
5.35539e-06
0.00189535
6.15096e-06
0.000959891
-1.08325e-06
-1.7022e-06
-5.45626e-06
-1.73411e-05
1.86042e-08
0.000174691
9.81182e-06
6.81654e-06
6.27824e-05
0.000111198
-0.00024594
-2.87033e-05
-0.000462558
2.97679e-06
-0.00108733
-1.47162e-05
0.00148954
-0.00132364
1.33833e-06
-0.00187457
2.3822e-06
-0.00252923
1.98772e-06
-0.00341422
1.1241e-05
0.00453966
-0.00465321
-1.34608e-05
0.00611628
-3.87427e-06
3.4254e-06
0.00352064
-1.73267e-07
1.32402e-05
4.74163e-06
-2.66557e-06
0.000934215
-7.60632e-06
0.000457785
2.79912e-05
-3.10461e-05
0.000434594
-1.91642e-05
3.49977e-05
-9.16976e-05
0.000663169
-6.46048e-05
-0.000115621
-0.00123341
-9.37129e-05
-0.00178283
1.08211e-05
-0.00396085
-2.5879e-05
0.0051999
-0.004583
1.49408e-05
-0.00605356
1.3711e-05
-0.00768159
-2.16353e-06
-0.00966338
-7.91977e-06
0.0119712
-0.0123644
-5.01113e-05
0.0149485
-2.92929e-05
-1.97466e-06
1.23961e-05
1.63227e-05
3.00382e-05
2.28732e-05
1.55593e-05
8.80108e-06
7.4074e-06
7.4748e-06
1.22782e-05
9.67593e-06
9.06148e-05
0.000161007
0.000255275
8.89219e-06
2.95319e-05
2.00056e-05
1.73915e-05
1.15342e-05
1.53046e-06
4.22065e-06
-7.57778e-05
-0.000721224
4.3531e-05
-0.000704949
0.00110077
9.76372e-05
-0.00144221
-0.00147785
0.00112118
0.00104779
9.54055e-05
-0.00137799
-0.00157618
0.00118772
-0.000762684
4.19615e-05
-0.000681873
0.000547182
0.000576203
0.000568265
0.000553282
4.33138e-05
-0.000748446
-0.000697452
-7.58542e-05
0.00106484
9.71889e-05
-0.00154574
-0.00141255
-0.000140549
0.00200803
0.000192656
-0.00293859
-0.00266854
-0.00273707
-0.00280543
0.000195982
0.00207859
0.00212109
-0.000139837
0.00197192
0.000191252
-0.00260193
-0.00299664
0.00225503
-0.000144727
-0.0013016
-0.00194626
6.96729e-05
0.000956284
-7.92765e-05
-0.000651654
-0.000953412
3.22059e-05
0.00051067
0.000610045
-0.000326198
3.41899e-05
-0.000316848
-5.94421e-05
-0.000322361
3.41096e-05
-0.00031641
-5.94102e-05
-0.000322523
3.49777e-05
-0.000320943
0.000602023
0.000515007
-6.20469e-05
-4.27476e-05
7.94607e-05
-0.000173771
-0.000168452
-0.00016714
-0.000186832
-0.000177636
-0.000179206
-0.000175147
-0.00017749
-0.000266598
-0.00018522
-0.00016818
-0.000168296
-0.000112714
-4.24127e-05
-5.49235e-05
0.00011574
-0.000129513
0.000344624
0.000349136
0.000346755
0.000346298
0.000359823
0.000328817
-0.000123673
0.00010057
-4.19927e-05
-0.000112595
-5.52477e-05
0.000113578
1.2885e-05
4.19449e-05
4.26833e-05
9.26187e-05
0.000164227
-4.61472e-06
-0.000240105
0.00378338
0.000333507
-0.00482045
-0.00494258
-0.00456997
-0.00528319
0.00032304
0.00351753
0.00403405
-0.000246274
-0.00243962
-0.00367257
0.00014098
0.00180514
0.0027101
-3.37537e-05
0.000221163
-0.000425372
7.4819e-05
0.000417155
-0.000755589
0.000122593
0.000746725
-0.00123883
0.000228456
0.00138922
-0.00176542
0.000679596
0.00315152
0.000363421
0.00193328
-0.000593735
0.0010276
-0.000528435
0.000655168
-0.000355592
0.00041423
-0.000218202
0.000239013
3.75839e-05
-0.000229606
0.00142102
-1.40527e-05
0.000102774
-0.000138
6.39563e-06
8.58271e-05
-0.000137566
-0.000123724
2.58457e-05
4.98413e-06
-0.000429913
3.3847e-05
-0.000301332
-6.21736e-05
-4.21343e-05
8.56406e-05
-0.00013703
-0.00019209
-0.000196218
-0.000162958
-5.5858e-05
-0.000132457
-4.69492e-05
-8.11151e-05
-0.000303343
4.49818e-05
0.000428592
0.000327962
0.00036238
-0.0001236
-0.000277434
-0.000173284
8.06903e-05
0.000254403
0.000257877
0.0004659
0.000758758
0.0011691
0.000238822
-0.00426834
-0.00647207
0.00487546
0.00323952
-0.00038206
-0.000220644
-0.000110299
-9.72759e-05
0.000435668
0.000683895
0.00102255
-0.000597108
-0.000387495
0.00674408
0.000492
-0.00748085
-0.00869975
-0.00694632
-0.0107383
0.000359339
0.0054787
0.00822939
-6.92054e-05
0.000113138
4.97538e-05
3.15587e-05
6.15722e-05
0.000111333
-0.00961079
0.00859295
-0.0107332
9.27535e-05
0.000280843
0.000184809
0.000150364
3.17381e-05
-4.81615e-06
0.00749955
3.57586e-05
-7.823e-07
0.0118332
0.000222473
-5.67014e-06
0.000367492
0.000479763
-7.65021e-05
1.14449e-05
3.33196e-05
1.52847e-05
2.24184e-05
-1.94713e-05
2.77589e-05
2.1771e-05
3.3773e-05
1.90389e-06
2.50676e-05
2.20513e-05
6.74504e-06
-2.97553e-08
9.53886e-07
-5.78508e-07
8.36505e-06
0.000264382
0.000454297
0.000267358
0.000212893
0.000214614
0.000238039
0.000106178
0.000106087
3.87107e-05
6.49661e-05
0.000302498
0.000141089
0.000371254
0.000367098
0.000553207
0.000559418
0.000634875
0.000696178
0.000697117
0.000920753
0.000693859
-0.00940509
0.0107061
0.00102192
-0.0138081
0.000922034
0.000683929
-0.00214902
-0.0029856
-0.0213587
-0.0228079
-0.0382099
0.0096857
0.00313395
0.0177174
-0.00645228
0.0104281
-0.00114682
-0.0117092
0.0106379
-0.000239364
0.00718315
-0.000261975
0.0099995
-0.0109817
-0.000887389
-0.00027408
-0.000326386
0.000137494
-0.00114185
0.00746517
-0.000314282
0.000445104
0.000229988
0.000111402
0.000137757
6.11931e-05
5.50588e-05
-0.000191387
-0.000192501
-0.000164405
1.32077e-05
0.000497931
5.49006e-05
-7.26848e-05
-8.85186e-05
0.00419467
-0.00546364
6.61986e-05
-0.0112043
4.27338e-06
0.0139812
-0.0120874
2.18304e-05
-0.0148149
2.81168e-05
0.0146607
-2.84626e-06
8.33387e-06
1.44761e-05
3.09397e-05
8.25114e-05
0.00066541
0.000126972
4.00407e-05
1.66146e-05
4.95579e-06
5.31378e-06
5.37669e-06
3.1096e-06
1.55138e-06
0.000936378
2.15424e-06
0.00132508
6.55619e-07
0.00064748
0.000454479
9.2317e-07
0.000341143
0.00017498
4.56824e-06
4.26396e-07
-4.59801e-07
4.7659e-06
2.42663e-06
0.00184948
5.31783e-05
-0.000163364
0.00155396
-0.000115542
8.82638e-05
-0.000262029
0.00240529
-0.000170386
-0.000323093
-0.00396968
-0.000175417
0.0048995
-0.000392165
-0.000231608
0.000232675
0.000146448
1.22619e-05
0.00344773
9.66979e-06
0.00344898
2.55562e-05
3.73057e-05
0.00601427
1.9271e-05
0.00779469
3.91624e-05
0.000100606
0.00980147
-0.000612903
0.00684052
-0.000424956
-0.000566735
-0.010047
5.82141e-05
0.0103198
-0.00118011
0.000289124
-0.000168391
-0.00203994
-0.00547908
-8.6657e-05
-0.000860084
-0.000360607
0.000221148
0.00022096
0.0148496
3.89998e-05
-7.62888e-06
-5.38155e-05
-7.6156e-05
-0.000326262
-1.22783e-05
4.5512e-05
3.50075e-05
0.0122467
0.00973301
-8.96941e-06
-1.14309e-06
-3.48475e-05
-9.29335e-05
-0.000128603
-0.000570664
-0.000190405
-0.000172053
-7.75478e-05
-2.53477e-05
0.00991627
-2.36712e-05
5.98406e-06
1.18077e-05
0.00020606
0.000118486
5.74499e-05
-1.49047e-05
-1.32681e-06
0.000324863
0.000477427
0.000700628
-5.67251e-05
0.000295967
0.000241175
-0.000467694
0.00228779
0.0052499
-0.00355013
0.0230116
0.00225858
0.00145484
0.000636139
0.00126381
0.00130243
0.0010006
0.000677634
0.000432013
0.000251835
0.000255371
8.18183e-05
-3.59854e-05
-3.62345e-05
-0.000266453
-0.000129542
-0.000277118
-0.000137497
8.40061e-05
0.000254608
-0.000111327
-7.95268e-05
0.00096963
0.00116852
9.04423e-05
3.93817e-06
7.01392e-06
5.68683e-06
6.91034e-06
8.17199e-06
1.71659e-05
-3.74494e-06
0.000113127
0.000395364
3.57061e-05
4.35426e-05
7.59284e-06
7.60424e-07
1.04095e-05
9.88533e-06
1.30979e-05
1.46469e-05
-6.64374e-06
0.000159698
0.000251708
0.000259971
0.000373715
-6.14574e-05
-0.000573201
-0.00813385
0.00051928
-0.00791411
0.00945478
0.000794761
-0.0121426
-0.0125591
0.00972306
0.00910254
0.000717306
-0.011442
-0.0134469
0.0104264
-0.000581136
0.00869993
0.0129649
-1.85447e-05
9.28539e-05
-0.000876291
0.00169989
0.00230146
0.00283002
0.00517235
0.00570403
0.0127526
0.0298515
0.00397265
0.0156575
0.0232183
-0.00214326
-0.00127062
0.00154096
0.00139167
-0.000793647
-0.000541439
0.00587929
0.00630506
0.00616148
0.00597524
0.000510215
-0.00849764
-0.00772666
-0.000581069
0.00925193
0.000793366
-0.0130421
-0.0119702
-0.000846822
0.0131157
0.0139849
0.012414
-0.000827249
-0.000144132
-0.00020989
-1.39111e-05
2.05211e-05
8.95603e-05
2.04159e-05
2.05661e-05
-2.83669e-05
-1.11049e-05
-0.000210013
0.00212942
-0.000241406
-0.000145458
-0.00032448
-0.000297286
-0.000185991
-0.000314632
-0.000143263
0.00563743
-0.000177187
9.84924e-05
2.52285e-05
9.94828e-06
0.000216431
0.000188436
-0.00260288
0.0129066
-0.00686292
-0.0239277
-0.0276678
0.00243896
-0.0132547
0.00565107
0.00183998
-0.00822416
-0.00918869
-0.000893829
-0.0013119
0.00858117
0.00796653
-0.000810333
-0.00783173
-0.000172351
0.00775263
-2.12279e-05
7.75668e-05
-2.12121e-06
7.42498e-05
0.000277973
0.000288724
0.000183697
4.39426e-05
3.0283e-05
-5.13413e-05
-4.87179e-05
3.72857e-06
-7.19688e-05
-2.44838e-05
-7.11693e-06
0.000362451
0.000484335
0.000487888
-0.000192993
0.000604407
0.000522557
-0.000224316
0.0191986
-0.00108279
0.00129144
-0.0212906
0.000533887
0.000271978
0.00301057
0.000361307
0.000595256
0.00191789
-0.000159767
-2.52254e-05
-0.000133143
0.000574268
0.00500238
-0.000338133
-0.000232994
-0.000147518