/*--------------------------------*- C++ -*----------------------------------*\
| =========                 |                                                 |
| \\      /  F ield         | OpenFOAM: The Open Source CFD Toolbox           |
|  \\    /   O peration     | Version:  2306                                  |
|   \\  /    A nd           | Website:  www.openfoam.com                      |
|    \\/     M anipulation  |                                                 |
\*---------------------------------------------------------------------------*/
FoamFile
{
    version     2.0;
    format      ascii;
    arch        "LSB;label=32;scalar=64";
    class       volScalarField;
    location    "1.3";
    object      gradTz;
}
// * * * * * * * * * * * * * * * * * * * * * * * * * * * * * * * * * * * * * //

dimensions      [0 -1 0 1 0 0 0];

internalField   nonuniform List<scalar> 
5322
(
-0.871348
-0.889032
-0.916965
-0.994012
-0.98522
-0.981441
-0.97976
-0.979852
-0.982113
-0.989741
-0.97822
-0.980922
-0.738194
-1.01775
-1.11289
-0.888392
-1.05014
-0.786208
-1.10699
-1.11721
-1.12446
-1.11962
-1.12045
-1.12666
-1.12697
-1.12112
-1.12196
-1.12762
-1.12856
-1.12345
-1.12382
-1.12647
-1.11935
-1.10201
-1.04833
-0.86097
-0.979497
-0.998093
-1.03026
-0.725696
-0.958074
-0.988747
-0.712679
-0.990205
-0.980525
-0.724522
-1.00393
-0.947654
-0.714884
-0.981592
-1.09947
-0.788719
-1.07351
-1.00826
-0.945114
-0.958575
-1.13735
-0.943705
-0.954962
-0.959574
-1.15121
-0.95642
-0.955351
-0.935912
-1.1504
-0.988579
-0.9508
-0.888882
-1.12311
-1.04953
-0.787564
-1.22701
-1.16858
-1.15197
-1.1642
-1.15854
-1.15794
-1.15386
-1.16892
-1.10681
-1.05299
-0.809615
-0.839203
-1.1341
-0.773251
-1.02821
-1.38816
-0.848221
-0.869477
-0.781213
-0.987792
-0.882418
-0.931031
-0.923688
-1.12166
-0.971799
-0.968198
-0.985742
-1.41277
-0.825519
-0.83246
-0.793967
-0.993207
-1.10847
-1.20586
-0.939623
-0.996804
-0.998577
-0.994284
-0.994698
-0.994207
-0.993152
-0.991457
-0.994469
-1.14477
-1.13358
-0.793298
-0.859632
-1.14504
-0.947427
-0.839785
-1.02142
-1.0071
-1.41884
-1.05692
-1.38934
-0.997529
-1.04161
-1.36546
-0.993301
-1.01943
-1.37778
-1.00869
-1.00045
-1.38408
-1.02296
-1.00666
-1.42109
-1.0577
-1.38943
-1.00001
-0.842651
-0.947523
-0.847602
-0.794772
-1.14518
-0.859671
-0.853631
-0.784221
-0.789388
-1.14291
-0.854796
-0.851493
-0.784666
-0.791282
-1.14262
-0.856513
-0.8472
-0.842352
-1.11271
-0.887089
-1.05152
-1.22285
-1.19537
-0.758304
-1.1072
-0.786284
-1.06501
-0.729192
-0.986144
-1.01898
-0.946541
-0.980196
-1.13766
-0.935809
-1.15258
-1.14452
-1.10548
-0.923847
-1.10356
-1.12975
-1.13207
-1.122
-0.938624
-1.12329
-1.12709
-1.12852
-1.12507
-0.942479
-1.1261
-1.12781
-1.12879
-1.12591
-0.944508
-1.12735
-1.12929
-1.13078
-1.12555
-0.946369
-1.12785
-1.13146
-1.134
-1.12433
-0.947928
-1.1276
-1.13219
-1.13605
-1.12388
-0.945894
-1.12853
-1.11346
-1.11713
-0.983528
-1.41356
-0.825837
-0.822913
-0.796707
-1.12202
-1.11895
-0.931107
-0.923941
-1.11822
-0.979517
-0.956345
-0.992002
-1.40856
-0.830246
-0.822753
-0.798173
-0.979949
-1.1148
-0.967832
-0.979122
-0.996849
-0.994108
-0.995131
-0.994603
-0.993394
-0.991557
-0.994433
-1.14472
-1.13386
-0.789804
-0.787358
-0.786746
-0.789754
-1.14248
-0.851428
-0.856215
-0.861441
-1.01917
-1.43173
-0.851668
-1.14252
-0.855952
-1.42371
-1.0385
-1.36087
-0.992594
-0.861649
-1.01908
-1.36117
-0.726694
-0.976296
-0.936384
-0.935296
-0.98049
-1.14368
-1.10567
-1.13139
-1.12203
-1.12819
-1.12495
-1.12871
-1.12583
-1.13094
-1.12547
-1.13456
-1.12399
-1.13732
-1.12272
-1.12413
-0.970912
-1.41294
-0.989525
-0.967843
-1.11086
-1.13123
-0.946381
-1.13183
-1.12899
-0.948362
-1.13193
-1.12839
-0.946677
-1.12997
-1.12744
-0.944682
-1.12852
-1.12589
-0.942548
-1.12805
-1.12264
-0.938607
-1.13131
-1.10238
-0.923592
-1.15415
-0.946689
-1.15286
-1.10362
-0.9236
-1.14485
-0.980252
-1.1374
-0.944484
-0.735555
-1.02117
-0.888574
-1.15783
-1.10791
-1.12924
-1.12857
-1.12754
-1.12913
-1.12954
-1.12892
-1.13241
-1.12798
-1.1379
-1.12269
-1.14472
-1.11214
-1.12697
-0.976212
-1.39237
-1.03061
-0.932558
-1.19618
-1.21455
-0.915781
-1.21628
-1.21085
-0.91823
-1.21423
-1.20825
-0.91561
-1.20989
-1.20659
-0.913402
-1.20822
-1.2065
-0.911926
-1.20803
-1.20565
-0.90954
-1.21231
-1.19579
-0.896551
-1.22266
-1.05131
-1.11234
-0.985791
-1.04148
-0.908652
-1.06848
-0.727123
-0.829888
-0.943995
-0.866583
-1.18484
-1.15401
-1.11176
-1.10426
-0.921322
-1.14512
-1.16176
-0.901966
-1.14225
-1.00331
-0.954243
-0.937987
-1.38244
-1.11549
-1.05756
-1.41936
-1.01755
-0.948618
-0.968772
-0.94152
-1.15408
-1.10236
-0.933591
-1.13212
-1.12263
-1.12865
-1.12593
-0.929111
-1.12944
-1.12684
-1.13169
-1.12641
-0.928178
-1.13499
-1.12469
-1.13645
-1.12463
-0.924938
-0.932104
-0.932462
-0.932554
-0.933353
-0.929895
-1.13864
-1.12478
-0.946538
-1.13448
-1.12379
-1.14253
-1.11869
-0.942709
-1.13995
-1.09515
-1.21942
-0.936672
-1.38099
-0.83941
-0.803142
-0.816501
-1.08021
-0.876092
-0.779934
-1.13948
-0.762988
-1.0966
-1.13659
-0.761205
-1.11883
-1.12908
-0.758735
-1.12665
-1.12855
-0.757726
-1.12246
-1.12072
-0.757733
-1.12612
-1.11999
-0.758693
-1.12319
-1.1113
-0.757842
-1.11287
-0.852769
-0.822192
-1.02433
-0.894368
-0.996798
-1.03387
-1.15278
-1.16503
-1.15481
-1.16191
-1.12676
-1.12905
-0.940573
-1.13056
-1.12988
-1.12701
-0.937338
-1.12364
-0.931969
-0.881788
-0.884473
-0.786337
-0.916869
-0.889988
-0.853773
-0.995322
-0.988104
-0.977669
-0.986661
-0.766174
-1.2485
-0.691479
-0.92826
-0.985583
-0.963285
-0.967604
-0.995757
-0.980763
-0.978304
-0.997774
-0.968004
-1.03343
-0.908557
-1.02289
-1.02668
-1.16017
-1.15934
-1.16409
-1.15698
-1.13067
-1.12856
-0.944736
-1.13095
-1.13389
-1.12934
-0.942565
-1.12877
-0.930834
-0.882821
-0.881995
-0.783516
-0.914711
-0.904722
-0.866143
-0.914076
-0.883957
-0.848718
-1.0196
-0.907174
-0.783936
-0.988813
-0.99315
-0.981845
-0.981565
-0.926192
-0.899075
-0.892783
-0.784292
-0.977592
-0.964857
-1.10505
-0.932179
-1.13228
-1.13029
-1.12356
-0.938767
-1.1217
-0.92818
-1.1287
-1.12755
-1.12622
-0.942798
-1.12522
-0.927171
-1.1288
-1.12886
-1.12691
-0.945054
-1.12681
-0.926796
-1.13041
-1.13148
-1.12635
-0.947184
-1.12761
-0.926087
-1.13229
-1.13557
-1.12393
-0.94885
-1.12832
-0.924642
-1.13082
-1.13857
-1.1221
-0.946062
-1.13014
-0.920463
-1.11052
-1.12119
-0.981932
-0.966108
-0.982095
-0.801627
-0.825938
-0.793724
-0.751841
-1.07706
-0.767027
-1.03515
-0.850886
-0.815314
-1.06503
-1.09188
-0.918183
-0.968423
-0.968414
-0.975528
-0.994931
-0.975677
-0.976893
-1.00038
-0.972185
-0.999236
-0.977577
-0.970548
-0.972403
-0.975805
-0.983776
-0.971696
-0.972458
-0.739891
-1.01059
-0.894475
-0.930277
-0.934627
-0.952592
-0.984306
-1.14031
-0.859656
-1.05922
-1.04589
-1.05717
-1.07278
-0.840447
-1.05582
-1.0596
-1.05456
-1.14138
-0.771308
-0.776382
-0.77501
-0.773777
-0.771291
-0.768561
-1.14317
-0.773769
-0.772955
-0.773226
-1.14323
-0.77506
-1.14796
-1.14939
-1.147
-1.01759
-1.01576
-0.943675
-0.930886
-0.928814
-0.929734
-0.930583
-0.931041
-0.88305
-0.784876
-0.913097
-0.90303
-0.863533
-1.03012
-1.02526
-1.17546
-1.1398
-1.20114
-0.921483
-0.992799
-0.84663
-1.04058
-0.91865
-0.975224
-0.995372
-0.968811
-0.967129
-0.969288
-1.00613
-0.992967
-0.977993
-0.928246
-0.889048
-0.897532
-0.933635
-0.736951
-0.8072
-1.0924
-0.989317
-1.0358
-1.06194
-0.703219
-0.87788
-0.925902
-1.09419
-0.728778
-0.914503
-0.931015
-1.09947
-0.731712
-0.90301
-0.941955
-1.09539
-0.74553
-0.892187
-0.997169
-1.36232
-1.01718
-0.992565
-1.248
-1.2098
-0.985145
-0.745324
-1.07356
-1.00903
-0.94464
-0.956579
-0.949545
-0.715209
-0.979859
-1.09996
-0.788492
-1.05369
-0.81007
-0.839944
-1.13449
-1.07588
-0.87075
-1.14082
-1.10712
-0.893291
-1.13279
-1.11992
-0.895019
-1.12823
-1.12281
-0.895903
-1.12522
-1.12326
-0.89471
-1.12413
-1.12272
-0.895969
-1.12165
-1.1229
-0.880684
-1.11766
-1.10649
-0.858417
-1.06545
-0.904004
-1.04018
-0.984623
-1.05095
-1.22305
-1.19508
-0.896551
-1.16001
-0.886735
-1.11282
-1.02075
-0.735707
-0.943283
-0.976957
-1.13767
-0.931709
-0.978695
-0.980032
-0.990456
-0.982006
-0.984534
-0.981665
-0.980155
-0.914882
-0.887935
-0.8522
-1.03278
-1.0339
-0.912677
-0.9096
-0.969653
-0.986041
-1.12981
-1.13113
-0.9309
-1.12561
-1.12816
-0.945251
-1.12703
-1.12972
-0.947267
-1.1276
-1.13178
-0.948651
-1.12723
-1.13169
-0.945799
-1.12634
-0.991437
-1.00049
-0.981067
-0.986775
-0.974669
-0.968977
-0.969847
-0.971427
-0.973433
-0.976888
-0.984966
-0.974762
-0.975619
-0.735435
-0.97696
-0.931265
-0.979814
-0.978872
-0.990096
-0.981826
-0.978754
-0.977065
-0.97561
-0.974631
-0.978196
-1.02267
-1.01687
-0.742797
-1.32603
-0.999618
-0.959441
-0.932254
-1.09946
-0.732967
-0.734752
-0.804236
-1.14627
-0.766803
-0.778365
-0.793431
-1.1528
-0.770304
-0.78185
-0.786574
-1.14799
-0.786674
-0.800174
-0.868913
-1.44836
-1.03085
-1.00645
-1.01124
-1.00214
-0.849065
-0.818085
-0.872102
-1.44301
-0.862826
-0.864628
-1.15045
-0.958006
-0.954825
-0.935028
-0.994842
-0.712193
-0.984844
-0.985592
-0.726036
-1.00008
-0.946225
-0.95438
-0.956224
-1.15961
-1.15573
-1.16602
-1.15018
-0.955355
-0.901419
-0.981229
-1.15223
-0.965566
-0.73284
-1.02536
-0.899698
-0.731598
-1.22532
-0.676165
-0.933861
-0.81837
-1.00523
-1.01101
-0.844374
-1.0342
-1.02406
-0.867595
-1.02696
-1.03301
-0.849466
-1.033
-1.02462
-0.869487
-1.02367
-1.03277
-0.846369
-1.03135
-1.02443
-0.866627
-1.0192
-1.03396
-0.843278
-1.00708
-1.01399
-0.824158
-0.944546
-0.688951
-1.24425
-0.895277
-0.767017
-1.42067
-1.00744
-1.05713
-1.3878
-0.999002
-1.03974
-1.36389
-0.991965
-1.02085
-1.37761
-1.01124
-0.997735
-1.38325
-0.74206
-0.951525
-1.14086
-0.938598
-0.947187
-1.15153
-0.923643
-1.10353
-1.10408
-0.932153
-1.12965
-0.909467
-1.12715
-1.20528
-0.784189
-1.20814
-0.756806
-1.20548
-0.78344
-1.20651
-0.75671
-1.20691
-0.783805
-1.2074
-0.757281
-1.20786
-0.784645
-1.20786
-0.758412
-1.21104
-0.786368
-1.20919
-0.760125
-1.21615
-0.788909
-1.19962
-0.759209
-0.894511
-1.14578
-1.11902
-0.941147
-1.16368
-0.907988
-1.16289
-1.12871
-0.93548
-1.16238
-0.908147
-1.16033
-1.12927
-0.933279
-1.15999
-0.907238
-1.16018
-1.12885
-0.931907
-1.16032
-0.906621
-1.158
-1.12888
-0.931795
-1.15886
-0.90638
-1.15832
-1.12995
-0.932656
-1.16134
-0.905669
-1.15731
-1.1345
-0.937893
-1.1468
-0.893965
-1.1908
-1.14475
-0.954336
-0.862858
-0.829107
-0.728024
-0.986118
-1.04155
-0.904178
-1.06581
-0.856074
-0.889995
-0.901663
-0.928316
-0.932358
-0.974279
-1.13812
-0.936143
-0.978135
-0.94371
-1.15795
-0.896993
-1.19487
-0.786493
-1.21203
-0.75795
-0.989594
-0.979245
-0.966891
-1.14563
-1.01589
-1.42265
-0.856195
-1.14253
-0.851917
-0.860351
-1.05801
-1.05322
-1.04503
-1.05392
-1.0604
-1.43128
-1.01694
-0.94701
-0.932023
-0.933321
-0.936046
-1.13357
-1.13511
-0.937536
-0.981889
-0.973862
-0.967749
-1.14428
-0.924074
-1.10538
-1.13033
-0.938941
-1.12253
-1.12771
-0.943008
-1.02126
-0.93113
-0.932086
-0.932037
-0.932862
-0.93044
-0.9327
-0.931879
-0.930647
-0.93013
-0.92892
-0.931065
-0.932267
-1.1059
-1.13046
-1.2116
-1.20522
-1.20743
-1.20527
-0.757097
-1.12384
-0.783656
-1.12189
-0.758179
-1.12432
-0.786272
-1.11792
-0.879517
-0.844882
-1.03105
-0.905765
-1.02187
-1.15996
-0.93258
-1.12934
-0.939321
-1.12652
-1.1279
-0.931306
-1.12684
-0.943443
-1.12678
-1.12726
-0.92989
-1.12729
-0.94388
-1.12866
-1.12872
-0.929417
-1.12979
-0.913456
-1.13133
-1.13025
-0.913005
-1.13614
-1.11041
-0.902083
-1.00074
-1.00064
-0.995015
-0.994882
-0.994285
-0.993239
-0.991538
-0.994575
-1.14479
-1.13331
-0.7904
-0.783975
-0.788347
-0.854459
-1.43035
-1.01715
-1.01783
-1.41795
-0.853974
-0.859008
-1.06003
-1.05735
-1.11602
-1.05661
-1.42345
-1.01564
-0.943611
-1.15912
-0.897348
-0.993444
-0.97445
-1.14716
-1.1411
-0.773029
-0.770482
-1.14322
-0.767924
-0.783522
-1.14279
-0.974953
-0.933269
-0.884608
-0.937844
-1.3807
-1.19284
-0.954722
-1.14306
-0.921124
-1.11302
-1.10191
-0.935921
-1.1298
-0.938421
-1.12143
-0.93026
-1.12659
-0.94174
-1.12582
-1.12488
-0.927913
-1.12792
-0.912068
-1.12876
-1.12886
-0.912746
-1.12968
-0.931393
-0.930605
-0.929855
-0.929013
-0.931105
-0.974377
-1.14711
-1.14091
-0.952989
-0.997504
-0.975038
-0.993351
-0.974126
-0.952935
-0.997276
-0.931597
-0.933434
-0.930205
-0.929733
-0.931444
-0.928743
-0.978749
-0.976992
-0.975624
-0.97847
-0.976791
-0.905462
-0.88665
-0.891065
-0.899085
-0.733472
-1.01849
-0.75012
-1.35921
-0.981047
-0.958249
-0.959711
-1.1126
-0.985993
-1.03271
-0.981057
-1.34955
-0.96678
-0.957821
-0.930725
-1.09479
-0.731262
-0.744644
-0.811802
-1.13992
-0.763549
-0.790172
-0.803788
-1.14624
-0.766991
-0.79136
-0.799298
-1.14145
-0.784942
-0.804925
-1.16148
-0.996937
-0.931151
-0.923962
-1.13057
-1.20552
-0.915851
-1.21771
-0.761616
-0.912587
-1.17896
-0.93221
-1.11946
-1.14545
-0.93426
-1.09823
-1.18408
-1.13082
-1.04871
-0.835382
-0.956403
-0.888629
-1.10657
-1.16997
-1.15191
-1.11609
-0.93812
-1.1064
-0.930288
-1.1121
-0.937894
-1.1066
-0.931029
-1.1131
-0.940484
-1.107
-1.17274
-1.14608
-0.955263
-0.84736
-1.00833
-1.1533
-0.844863
-1.01269
-1.03029
-0.990803
-0.863854
-0.86263
-0.86789
-1.43431
-0.86901
-0.957615
-1.37534
-1.03406
-0.994075
-0.844305
-0.85774
-1.1587
-0.796521
-0.796
-1.15534
-0.982806
-1.00319
-0.998717
-0.994445
-0.994861
-0.994333
-0.993248
-0.991513
-0.994506
-1.14479
-1.1336
-0.767904
-0.77106
-1.04911
-1.045
-1.05678
-1.36062
-1.03888
-0.842208
-0.847408
-0.947182
-0.859731
-0.840142
-1.0072
-1.42111
-1.05719
-1.38053
-0.998548
-1.38706
-1.11608
-1.07373
-1.05761
-1.41837
-0.854074
-0.854623
-1.14291
-0.786441
-0.78594
-0.854794
-0.853973
-0.858398
-1.01264
-1.39575
-1.0132
-1.42975
-1.01653
-1.01755
-0.937916
-0.786744
-0.891763
-0.89861
-0.928678
-0.981516
-0.981231
-0.993032
-0.984855
-0.981932
-0.980395
-0.979096
-0.978206
-0.975022
-0.980581
-0.979459
-1.01318
-0.747361
-0.819143
-0.823784
-1.41356
-0.957861
-0.96859
-0.998825
-1.32242
-0.740224
-0.822097
-0.824577
-0.752644
-0.832418
-0.847632
-1.38832
-0.995836
-1.02818
-0.781643
-0.869556
-0.948617
-0.892151
-0.904508
-0.981524
-1.02444
-1.02204
-0.981458
-0.979877
-1.00912
-1.00209
-0.994938
-0.991262
-0.989703
-0.973938
-0.971079
-0.970801
-0.965007
-0.978192
-0.917148
-0.915487
-0.915154
-0.914974
-0.914055
-0.910773
-1.00395
-0.988249
-0.988864
-0.984721
-0.980303
-0.976819
-0.976278
-0.9735
-0.98829
-0.987695
-1.13116
-1.21167
-1.20498
-1.20761
-1.20515
-0.911095
-1.12835
-1.12663
-0.908998
-1.03206
-0.93091
-0.932186
-1.10529
-1.01599
-1.42286
-0.99263
-0.943813
-0.974136
-0.993446
-1.145
-0.793462
-0.784966
-1.06105
-1.0525
-1.06038
-1.04868
-0.767194
-1.1433
-1.04911
-1.05724
-0.860958
-1.07379
-1.04954
-1.04428
-1.05646
-1.05945
-1.11626
-1.05733
-1.05986
-1.06134
-1.07451
-0.792385
-0.860034
-0.947098
-1.14493
-0.847892
-0.841806
-0.993548
-0.975292
-1.14728
-1.14061
-0.952995
-0.975288
-0.933455
-0.884639
-0.786473
-0.881898
-0.783939
-0.928758
-0.928322
-0.929579
-0.927236
-1.12809
-1.12887
-1.2073
-1.20516
-1.20904
-1.20499
-0.913984
-1.13009
-1.12895
-0.912303
-1.03697
-0.881958
-0.783221
-0.882374
-0.783327
-0.9303
-0.926838
-0.93231
-0.928386
-0.93277
-0.928046
-0.932265
-0.930186
-0.881366
-0.785677
-0.92738
-1.0389
-1.03863
-1.03746
-1.03603
-1.0321
-1.01571
-0.996676
-0.995092
-1.02018
-1.0014
-0.997263
-1.02183
-1.00327
-0.997443
-0.995282
-1.01678
-1.01592
-0.99663
-0.999776
-0.998073
-1.00062
-1.00188
-0.998503
-1.02282
-1.00406
-0.99892
-1.02275
-1.00357
-0.997929
-1.01881
-1.03455
-0.928739
-1.1149
-0.739737
-1.16738
-0.994819
-0.978279
-1.14382
-0.786346
-1.15777
-1.06726
-1.03609
-0.977265
-1.34002
-0.969051
-0.961879
-0.90289
-1.06993
-1.08007
-0.850463
-0.96237
-1.07109
-1.07923
-0.988852
-0.968157
-1.33219
-0.981501
-1.03906
-1.04523
-1.04785
-1.03959
-0.977358
-1.06982
-0.944501
-0.942099
-1.09556
-0.746079
-0.730355
-0.799417
-1.14173
-0.784336
-0.773234
-0.786654
-1.14847
-0.785287
-0.776723
-0.779764
-1.14341
-0.800969
-0.869156
-1.43761
-1.05839
-0.992606
-0.866459
-0.861371
-1.15527
-0.981997
-1.00295
-0.998382
-0.998807
-0.998369
-0.99723
-0.995134
-0.997443
-1.01658
-1.03201
-0.909763
-1.12685
-1.12784
-0.911802
-1.12802
-1.12838
-1.20702
-1.20515
-1.20869
-1.20488
-0.757542
-1.12363
-0.782906
-1.12574
-0.756952
-1.12426
-0.782884
-1.12462
-0.893962
-0.857122
-1.02776
-0.906868
-1.02771
-1.15849
-0.931394
-1.12768
-0.941126
-1.13054
-1.12949
-0.932162
-1.12622
-0.944171
-1.13028
-0.933069
-1.12634
-0.942408
-1.13623
-1.13722
-0.936947
-1.11257
-0.930458
-1.10853
-1.1109
-0.938291
-1.13571
-1.13656
-1.10743
-0.930003
-0.981188
-0.936523
-0.933354
-0.93305
-0.932446
-0.931748
-0.930974
-0.881788
-0.881783
-0.929696
-0.927272
-0.930352
-0.92677
-1.12866
-1.12958
-0.914518
-1.12922
-1.13182
-1.21235
-1.20481
-1.21702
-1.20576
-0.761552
-1.10782
-0.784321
-1.13324
-0.759005
-1.12064
-0.783445
-1.1288
-0.894317
-0.85681
-1.02525
-0.910221
-1.03344
-1.1501
-0.932332
-1.11954
-0.93871
-1.14479
-1.13123
-0.938246
-1.11523
-0.923281
-1.09877
-1.18367
-0.934492
-1.13056
-1.04782
-0.955718
-0.888037
-0.955784
-0.987375
-0.834513
-0.870069
-1.14104
-1.07646
-0.782223
-0.902067
-0.90814
-0.911495
-0.912519
-0.912794
-0.913193
-0.914903
-0.889929
-0.899931
-1.04164
-0.90419
-0.688806
-0.829402
-0.94429
-0.86181
-1.24514
-0.765404
-0.892327
-1.1429
-1.00273
-0.90002
-0.948913
-1.14323
-0.923895
-1.10066
-0.93338
-1.12918
-0.93824
-1.1231
-1.12109
-0.928633
-1.12744
-0.911363
-1.12805
-0.989786
-0.975095
-1.12861
-0.972901
-1.13276
-0.984437
-0.983423
-0.970361
-0.973
-0.93296
-1.01116
-0.986312
-0.92959
-0.984532
-0.825454
-1.01162
-0.894323
-1.14506
-0.937893
-1.1335
-0.936632
-1.12426
-1.12523
-0.932273
-1.12711
-0.942
-1.12537
-0.929637
-1.12687
-0.943146
-1.12724
-1.1269
-0.928241
-1.12768
-0.97738
-0.976596
-1.12775
-0.974742
-0.973728
-0.976454
-0.98077
-1.13492
-0.974205
-1.16357
-0.977146
-0.963712
-1.00818
-0.995061
-0.987993
-0.967238
-1.15897
-0.996365
-0.858546
-1.02726
-0.90649
-1.1587
-0.931432
-1.12822
-0.940361
-1.12819
-1.129
-0.9314
-1.12677
-0.944199
-1.12862
-0.930962
-1.12746
-0.944065
-1.13062
-1.13123
-0.931701
-1.12629
-0.932227
-1.02269
-1.02242
-1.00392
-0.998663
-0.997505
-0.995382
-0.997689
-0.996657
-1.01566
-1.02007
-1.03582
-0.931244
-0.932081
-0.932813
-1.03785
-1.02263
-1.02166
-1.00319
-1.00135
-1.02132
-1.01691
-0.938791
-1.13186
-0.933166
-1.13097
-1.12239
-0.930383
-1.12779
-1.12835
-1.12186
-1.12208
-0.932391
-1.12783
-1.1301
-1.12541
-1.13447
-0.935854
-1.13076
-1.1048
-1.10146
-1.10239
-1.1039
-0.93578
-1.13342
-1.13146
-0.938787
-1.12159
-0.932353
-1.12949
-1.12824
-0.942405
-1.12509
-0.931522
-1.12927
-1.12776
-1.12766
-1.12814
-0.92982
-1.1259
-1.12557
-0.942397
-1.12537
-0.931527
-1.12741
-1.12989
-1.12802
-0.939956
-1.12953
-1.15874
-0.932385
-1.12438
-0.937223
-1.13366
-1.15955
-0.937585
-1.11295
-1.10236
-1.16253
-0.948691
-1.14425
-0.924414
-1.154
-0.94733
-1.15256
-0.924374
-1.14559
-0.948616
-1.16111
-1.10324
-1.1119
-0.921588
-0.97534
-0.967291
-0.972433
-0.744663
-1.0076
-0.957803
-0.981073
-0.982734
-0.740681
-0.969713
-0.936564
-0.956129
-1.00877
-0.744523
-1.38891
-1.0228
-0.996549
-0.858646
-1.14102
-0.96831
-0.938823
-0.940459
-0.96663
-0.902715
-1.00081
-1.14283
-0.839642
-1.02267
-1.38849
-0.99718
-1.41815
-1.01763
-0.933511
-0.932296
-0.93098
-0.932246
-1.0228
-0.943848
-1.12729
-0.930045
-1.12775
-1.12848
-1.12722
-1.13068
-0.931588
-1.1273
-1.12907
-0.941068
-1.12842
-1.15957
-0.9313
-1.12679
-1.15891
-0.907109
-1.02798
-1.02785
-0.858236
-1.02855
-1.0287
-0.859082
-1.02857
-1.03072
-0.857895
-1.02622
-1.03441
-0.855041
-1.00857
-0.968569
-0.996289
-0.969359
-0.998203
-0.968896
-0.99778
-0.968094
-0.997297
-0.967416
-0.99704
-0.859232
-1.02312
-1.15989
-0.906328
-1.03124
-1.0091
-0.846163
-0.99549
-0.967557
-0.963762
-1.01199
-0.894931
-1.19303
-0.954255
-1.14329
-0.921682
-0.975294
-0.975827
-0.986547
-0.766148
-0.893979
-1.24465
-0.688944
-0.945149
-0.825628
-0.984221
-0.929668
-0.829776
-0.862091
-1.00214
-0.901538
-1.14285
-0.933027
-0.972148
-0.967371
-0.980227
-0.986604
-0.980086
-0.977814
-0.977421
-0.93129
-1.12791
-1.16141
-1.15884
-1.12853
-0.984565
-0.983338
-0.982301
-0.976623
-0.973633
-0.970943
-0.970314
-0.985707
-0.941881
-1.12946
-0.932348
-1.12644
-1.13225
-1.12608
-1.16634
-0.931738
-1.13098
-1.15755
-0.908838
-0.757547
-0.992479
-0.979444
-0.983463
-0.997355
-1.13224
-1.21285
-1.20487
-0.78484
-0.88269
-0.882795
-0.783897
-0.930822
-0.926542
-1.12979
-0.930706
-0.926329
-1.12992
-0.916084
-1.03822
-0.933425
-0.933681
-1.03534
-1.01942
-1.02271
-1.00366
-1.00399
-1.02359
-0.999102
-1.00217
-0.999039
-0.998658
-1.02291
-1.02187
-1.02032
-1.00132
-1.02092
-1.03571
-1.03681
-0.91295
-0.991482
-0.990162
-0.976061
-0.977963
-0.983675
-0.9746
-0.973285
-0.966887
-0.979413
-0.927877
-0.989579
-0.981002
-0.97872
-0.981671
-0.984237
-0.989705
-0.987931
-0.985407
-0.998749
-0.994058
-1.12893
-1.13355
-0.916225
-1.12899
-1.00513
-0.989887
-0.985419
-0.990371
-0.891203
-0.949958
-1.21054
-1.2474
-0.745243
-0.996861
-1.3626
-1.01688
-0.849302
-1.00196
-1.01304
-0.865843
-0.868222
-1.45038
-1.0369
-1.00464
-1.27775
-1.10232
-1.10374
-1.04446
-1.06655
-0.789767
-1.15974
-0.979804
-1.00122
-0.998017
-1.02372
-1.02385
-1.02276
-0.933076
-0.9308
-0.926334
-0.930622
-0.926046
-0.882413
-0.882524
-0.882141
-1.16083
-1.15714
-0.931805
-1.1259
-0.941317
-1.13516
-1.1292
-0.933824
-1.12386
-0.942072
-1.12729
-0.933533
-0.933147
-1.02314
-1.03762
-1.03797
-0.916549
-1.02277
-1.00357
-1.00391
-1.00313
-1.02236
-0.931699
-0.930497
-0.931893
-1.13285
-0.973918
-1.12212
-0.96785
-1.10518
-1.15529
-0.936311
-0.969261
-0.984103
-0.733844
-0.974519
-0.973567
-0.976509
-0.981711
-1.13019
-0.981262
-0.966992
-1.02691
-0.996566
-0.978929
-0.967597
-1.15902
-0.997
-0.85806
-1.02765
-0.908039
-1.0297
-0.968341
-0.997398
-0.979367
-0.978533
-0.982863
-1.1298
-0.978233
-1.12816
-0.973154
-0.983957
-1.13046
-0.979099
-1.12851
-0.97435
-0.985005
-1.13186
-0.968829
-1.16574
-0.995541
-0.853999
-1.00767
-0.911882
-1.17842
-0.968177
-0.981616
-0.987653
-0.975387
-0.950746
-0.892682
-0.937794
-0.920414
-0.977341
-0.985659
-1.13286
-0.977707
-0.985907
-0.975539
-0.960513
-0.939243
-0.973883
-0.978233
-0.979079
-1.13094
-1.12851
-0.976049
-0.974381
-0.980074
-0.98894
-0.979406
-0.966933
-0.93931
-0.973409
-0.977192
-0.977513
-1.12764
-0.991891
-0.991016
-0.990278
-0.912773
-0.913095
-0.91463
-0.876931
-0.90468
-0.913544
-0.914278
-0.91579
-0.992917
-0.983262
-0.982982
-0.979939
-0.932523
-0.726344
-0.812796
-0.918495
-0.975544
-0.988903
-0.984001
-0.976093
-0.972003
-0.97018
-0.970503
-0.973115
-0.979826
-0.978462
-0.967382
-0.970071
-0.9701
-0.936419
-1.14102
-0.932606
-0.986937
-0.975541
-0.986206
-0.982715
-0.937254
-1.12385
-1.126
-0.93133
-1.01691
-0.996639
-0.953057
-1.0158
-1.03217
-0.884884
-0.938034
-1.38083
-1.2235
-0.757691
-0.882133
-1.03594
-1.02131
-1.00131
-1.02015
-1.0216
-1.00312
-1.02279
-0.932174
-0.932936
-0.93309
-0.933703
-1.02366
-0.944611
-1.12892
-0.931068
-1.12745
-1.13194
-0.933119
-1.1254
-1.12802
-1.12969
-1.13184
-0.933904
-1.12362
-1.1334
-1.12894
-0.942096
-1.1357
-1.1505
-0.911074
-0.759066
-0.986735
-0.978246
-0.98046
-0.986309
-0.987811
-0.955839
-0.950623
-0.892722
-0.974076
-0.937833
-0.920081
-0.97829
-0.987204
-0.974768
-0.971485
-0.982017
-0.982095
-1.1292
-1.12847
-1.1295
-1.12858
-0.933006
-1.13001
-1.12805
-0.94475
-1.13059
-0.935398
-1.12898
-1.1271
-0.942934
-1.13535
-1.14014
-1.13742
-0.940994
-1.03672
-1.02153
-0.998644
-1.0011
-0.999664
-1.00113
-0.931966
-0.925026
-1.12105
-0.798269
-0.733355
-1.15795
-1.06581
-1.06691
-0.977651
-1.04068
-1.04829
-1.06531
-0.777032
-1.14811
-0.956784
-1.15013
-1.15613
-1.1503
-1.14971
-1.12019
-0.891763
-1.04549
-1.3328
-0.754173
-0.985504
-1.11713
-1.03894
-1.10281
-1.0265
-0.992838
-1.2939
-1.0867
-0.804772
-0.871217
-1.4438
-0.863664
-1.15396
-0.801823
-1.15631
-0.958298
-1.00456
-1.00026
-1.01945
-1.01967
-1.03511
-1.02044
-1.02322
-1.02044
-1.001
-1.00377
-1.02387
-1.02362
-1.03787
-0.933704
-0.934534
-0.934004
-1.0208
-0.936714
-0.882629
-0.782679
-1.20678
-0.773398
-0.989789
-1.1072
-0.938939
-0.983935
-0.987711
-1.11998
-0.794777
-0.729928
-1.1599
-0.979737
-0.958358
-1.14964
-0.773016
-1.15012
-1.06576
-1.06601
-1.06883
-0.946159
-1.04513
-1.33197
-0.985366
-1.03921
-1.04465
-1.04598
-1.04979
-1.06567
-0.781815
-1.1501
-1.08291
-1.04654
-1.08115
-1.06632
-0.778012
-1.15214
-0.959889
-1.15634
-1.15572
-1.0269
-0.936612
-0.937173
-1.02715
-1.02249
-0.889014
-0.93899
-0.937471
-0.981425
-1.02213
-1.02632
-1.02835
-0.94416
-1.19682
-0.963226
-0.970071
-0.982375
-0.978989
-0.977356
-0.97749
-0.979647
-0.983815
-1.12835
-1.12657
-0.940049
-0.882377
-1.03703
-0.941067
-1.12808
-1.12968
-0.931799
-1.12973
-1.12788
-1.12696
-0.943846
-1.12774
-0.981315
-0.969575
-0.972158
-0.979385
-0.979539
-0.976778
-0.981201
-0.969083
-0.970766
-0.974754
-0.980878
-1.13776
-1.13418
-1.13821
-0.981094
-0.982034
-0.982139
-0.944617
-0.985611
-1.13109
-1.12982
-0.941793
-0.883791
-0.882778
-1.03852
-0.942269
-1.13227
-1.13352
-0.986056
-0.969516
-0.968714
-0.968015
-0.967458
-0.967462
-0.963459
-0.929441
-0.98436
-0.995802
-0.997745
-0.997455
-0.984862
-0.998553
-0.999036
-1.00058
-0.986364
-0.979969
-0.926903
-0.976472
-0.982738
-0.982638
-0.972376
-0.959154
-0.93865
-0.975755
-0.97277
-0.95906
-0.942006
-0.972036
-0.971296
-0.937669
-0.967072
-0.884967
-0.942407
-1.1304
-0.939373
-0.998056
-0.978693
-1.15383
-1.08371
-1.08658
-1.11689
-1.0262
-1.10245
-1.10374
-1.10226
-1.08402
-1.04388
-1.09932
-1.29257
-1.10213
-1.1048
-1.18404
-1.15453
-1.29915
-1.30035
-1.28016
-1.29639
-1.29432
-0.954061
-0.95783
-1.00034
-1.16149
-0.818771
-0.954
-0.985445
-0.944613
-0.92375
-1.13702
-0.932518
-1.12831
-0.905332
-0.883574
-0.907865
-0.880098
-0.892622
-0.895226
-1.1582
-1.12507
-1.12866
-0.977303
-1.29441
-1.13355
-0.989747
-0.756885
-0.907582
-0.72916
-1.14492
-0.758268
-0.758018
-0.756969
-0.895728
-0.858133
-0.928421
-0.899397
-0.958731
-0.95061
-0.7543
-0.927854
-1.14287
-0.784924
-1.05615
-0.751147
-1.10634
-0.928609
-0.948462
-0.877827
-0.84988
-0.736469
-0.927814
-0.928977
-0.93082
-0.783828
-0.93088
-1.13108
-0.930068
0.984883
0.973361
0.984426
0.977757
0.972016
0.969998
0.970121
0.972189
0.976364
0.984266
0.971866
0.96731
0.720559
1.01604
1.15146
0.904615
1.00542
0.954325
1.19499
0.894125
1.14652
1.00874
0.846104
1.03339
1.02458
0.860442
1.03151
1.02745
0.86089
1.03015
1.02733
0.856202
1.02962
1.02582
0.857053
1.02607
1.02739
0.85559
1.02031
1.03114
0.845164
1.00492
1.01199
0.824155
0.942307
0.68759
1.24214
0.765997
0.893568
1.00638
0.745405
0.955692
0.983662
0.74253
0.976275
0.974433
0.748062
0.987166
0.946192
0.741655
0.977013
1.17342
0.813754
1.09058
1.02773
0.946757
0.951454
1.12772
0.942618
0.947421
0.947283
1.13704
0.949153
0.945831
0.930573
1.13842
0.967086
0.946992
0.897978
1.14077
0.998646
0.952633
0.859962
0.826858
0.72608
0.902054
1.06312
1.10501
1.11504
1.12163
1.11968
1.1217
1.12212
1.12184
1.12427
1.12402
1.12513
1.12522
1.12653
1.12464
1.12589
1.1184
1.1021
1.04805
0.860802
0.977174
0.996722
1.02768
0.955813
0.720749
1.29041
0.997657
1.0565
0.993701
1.03158
1.15456
1.18265
1.10044
1.04931
1.05354
1.04988
1.10033
1.29062
1.05644
0.845923
0.856665
0.956518
0.869154
0.846378
1.01024
1.30104
1.03148
1.37465
0.993564
1.15454
0.97699
0.996787
1.04984
1.22576
1.19972
0.902052
1.16802
0.889884
1.12114
1.02826
0.720129
0.954873
0.986967
1.15227
1.11281
1.13761
1.12719
1.13179
1.12844
1.1299
1.12734
1.12996
1.12479
1.1314
1.12144
1.132
1.11876
1.1163
0.965131
1.39997
0.980887
0.961821
1.1042
1.12549
0.942156
1.1274
1.12504
0.945578
1.12997
1.12602
0.945713
1.13112
1.1264
0.945646
1.13218
1.12685
0.945313
1.13289
1.1268
0.943273
1.13713
1.10998
0.930709
1.16228
0.941696
1.14874
0.984393
0.709533
0.990992
0.946164
1.15122
0.960895
0.719291
1.01993
0.904354
1.17143
1.10969
1.13881
1.13413
1.12971
1.13963
1.12351
1.14166
1.12682
1.12553
1.13154
1.12214
1.13361
1.11177
1.12539
0.971954
1.40458
1.00931
0.953451
1.06563
1.22255
0.910782
1.20629
1.20361
0.912216
1.20553
1.20452
0.912475
1.22178
1.09908
0.943739
1.15402
1.11539
0.943587
1.14244
1.12459
0.941545
1.14075
1.11768
0.926586
1.14705
1.00771
1.15143
0.899871
0.732589
1.22624
0.851244
1.19322
1.1501
0.89467
1.01151
0.933701
0.813721
0.677002
0.862959
0.726891
1.04946
1.10604
0.75955
1.20094
1.11132
0.901181
1.2251
1.16881
0.88947
1.12093
1.0511
0.786153
0.943697
1.37538
0.993368
1.15447
1.03164
1.3011
1.01057
0.846746
0.956757
0.869146
0.804847
1.15864
0.856624
0.86739
0.800137
0.797317
1.15554
0.862246
0.86171
0.796521
0.800304
1.15547
0.867917
0.856233
0.803475
0.869469
1.15836
0.956525
0.846131
1.03178
1.0102
1.30158
1.0317
1.15448
0.992589
1.05682
1.28805
1.0011
1.02691
1.27636
1.0262
1.00184
1.28765
1.05643
0.846243
1.09587
1.18194
1.1004
1.43806
1.02674
0.950323
0.98828
0.944043
1.16334
1.11063
1.11047
1.11373
0.930571
1.1638
1.15156
0.989178
1.1493
0.942731
0.954539
1.02888
1.45104
1.10416
1.10046
1.43766
1.02674
0.950257
0.888145
1.05136
1.22538
1.20028
0.759478
1.103
0.786651
1.04771
0.72724
0.995634
1.12101
1.03182
0.950506
0.988388
0.987318
1.1492
0.951446
1.03081
0.995939
0.976098
0.866696
0.891361
0.842613
0.812668
0.978035
0.917471
0.9704
0.977593
0.991203
0.998044
0.855474
1.00444
1.03371
1.16009
1.17069
1.14864
1.1862
0.90389
1.04769
1.02587
0.907813
0.760129
1.12375
1.13521
0.756417
1.20675
1.13178
0.912072
1.2068
1.13005
1.13173
0.912094
1.20989
0.786023
0.88549
0.888844
0.941365
0.788838
1.12608
0.891062
1.11392
0.920689
0.920719
0.891682
0.85721
1.00245
0.971535
0.963225
0.978314
0.976666
0.969237
0.93545
0.94145
0.97646
0.954924
1.15235
1.16354
1.10974
0.931105
1.11218
0.941224
1.13772
1.13799
1.12872
0.943818
1.12526
0.936019
1.13526
1.13108
1.13094
0.946083
1.12359
0.933113
1.13567
1.1289
1.12983
0.946533
1.12405
0.929462
1.13261
1.12966
1.12594
0.945976
1.12521
0.924876
1.12957
1.13123
1.12153
0.94521
1.12404
0.922471
1.12655
1.13205
1.11851
0.941876
1.1254
0.919598
1.10306
1.11403
0.974754
0.961978
0.979635
0.795587
0.828147
0.798754
0.82906
0.901061
1.40377
0.958023
0.87923
1.14901
0.87965
1.08163
0.761709
1.09682
1.12812
0.75437
1.12241
1.13106
0.762808
1.07653
1.28257
0.981839
1.12441