/*--------------------------------*- C++ -*----------------------------------*\
| =========                 |                                                 |
| \\      /  F ield         | OpenFOAM: The Open Source CFD Toolbox           |
|  \\    /   O peration     | Version:  2306                                  |
|   \\  /    A nd           | Website:  www.openfoam.com                      |
|    \\/     M anipulation  |                                                 |
\*---------------------------------------------------------------------------*/
FoamFile
{
    version     2.0;
    format      ascii;
    arch        "LSB;label=32;scalar=64";
    class       volScalarField;
    location    "1.3";
    object      gradTx;
}
// * * * * * * * * * * * * * * * * * * * * * * * * * * * * * * * * * * * * * //

dimensions      [0 -1 0 1 0 0 0];

internalField   nonuniform List<scalar> 
5322
(
-0.251472
0.00575765
0.00701551
0.000788331
-0.000139616
-0.000180084
-4.69624e-06
0.000122989
7.26305e-05
-0.000211729
-0.00100672
0.0109139
0.0168191
-0.231689
-0.00614223
0.403221
-0.316858
-0.00500656
-0.241762
0.155868
-0.211924
0.18438
-0.195029
0.196172
-0.198722
0.190989
-0.191411
0.198689
-0.195744
0.195932
-0.185929
0.211384
-0.158797
0.242217
0.00351763
0.304197
0.214469
-0.0855317
0.240377
-0.0138097
-0.227981
0.229252
-0.0138783
-0.243908
0.242405
-0.00833374
-0.259243
0.226416
-0.00571436
-0.271714
-0.268068
-0.389284
-0.121631
0.26099
-0.0166368
-0.430942
-0.01224
0.411855
-0.00493502
-0.411539
-0.00176972
0.401092
-0.00231531
-0.404232
-0.000145937
0.394945
0.00501446
-0.400325
0.0172479
0.327834
0.0130396
-0.349779
0.396316
-0.41018
0.39486
-0.402104
0.402895
-0.402048
0.4577
-0.329779
0.16157
-0.213594
-0.138145
0.23974
0.0248959
-0.135752
0.158867
-0.427795
-0.161314
0.509686
-0.0219141
0.00952287
0.0175618
0.0794078
0.365206
-0.0848653
-0.0103144
-0.0418053
0.163801
-0.379329
-0.379727
0.848175
-0.0410995
0.281694
0.458517
-0.00564302
0.00277874
0.0037873
0.00229479
0.00112344
0.000445994
-0.000118468
-0.00116996
-0.00287243
0.00452473
-0.00152393
-0.133124
-0.131352
0.0139114
0.083727
0.00475693
0.127726
-0.152771
-0.0114442
-0.035184
0.236844
0.194825
0.0541796
0.152326
0.0984687
0.0748798
0.163541
0.0825733
0.0885874
0.166389
0.0722896
0.13941
0.189146
0.21442
0.00921337
-0.157163
0.0086678
0.104705
-0.126837
-0.136078
0.0194595
0.0562355
0.0309457
-0.1065
-0.117051
0.0219074
0.0348724
0.0420275
-0.115505
-0.109591
0.0220894
0.0229281
0.0665402
-0.12677
0.165418
-0.356577
-0.477959
0.411976
-0.482472
-0.0202009
-0.331937
0.00268639
0.323586
-0.0777102
0.385656
0.191174
0.285072
-0.427232
0.16671
-0.36812
0.244923
0.319315
-0.39059
0.0087695
-0.332076
0.292327
0.363875
-0.386773
-0.00238282
-0.324167
0.308601
0.377016
-0.386511
-0.000735644
-0.322524
0.314279
0.381677
-0.388999
9.70116e-05
-0.324744
0.314023
0.382751
-0.394992
0.00048519
-0.330587
0.309214
0.381082
-0.404061
0.0010756
-0.337984
0.299616
0.376186
-0.411385
0.00248757
-0.340079
0.281692
0.351659
-0.0767225
0.156488
-0.376535
-0.383982
0.85338
-0.0293573
-0.0321624
0.0196506
0.0857107
0.362851
-0.0669809
-0.00660329
-0.0746847
0.14907
-0.383644
-0.37734
0.848492
-0.0495561
0.281768
-0.0106315
0.00467568
0.00454316
0.00292217
0.00152075
0.000660409
-1.00304e-06
-0.00108072
-0.00260939
0.00451544
-0.00139582
0.105792
-0.117424
0.117012
-0.106286
0.000211709
0.1064
-0.100563
-0.000567319
-0.126658
6.99358e-05
-0.106425
-8.03949e-05
0.100302
0.00394663
0.118292
-0.00965755
-0.127891
0.000419188
0.126478
-0.000131536
-2.34673e-05
0.224038
-0.385101
0.384636
-0.380439
0.400513
-0.409818
0.428651
-0.427449
0.434371
-0.432688
0.436603
-0.434933
0.439247
-0.436052
0.442714
-0.435476
0.444789
-0.427334
0.438708
-0.235152
0.00495043
0.237358
0.00639798
-0.427977
0.415909
0.00215721
-0.432052
0.425554
0.00146336
-0.430311
0.426532
0.000968832
-0.427225
0.425225
0.000671857
-0.424569
0.422881
0.000699393
-0.4216
0.418123
0.00112309
-0.414172
0.403237
0.00127682
-0.385122
0.000226587
0.38499
-0.403488
-0.0018102
-0.399918
0.379863
-0.000712407
-0.225947
-0.0146783
0.229836
-0.398813
0.385113
-0.405591
0.407517
-0.4149
0.414549
-0.416588
0.417822
-0.417397
0.421714
-0.417655
0.427502
-0.41486
0.433284
-0.400719
0.430474
-0.231723
-0.049765
0.100775
0.0127131
-0.399546
0.359427
0.005035
-0.393283
0.379964
0.000720584
-0.380981
0.379276
-0.000467338
-0.376043
0.376323
-0.000658819
-0.374491
0.375354
-0.00191102
-0.373186
0.375758
-0.00483948
-0.367911
0.370682
-0.0111718
-0.342378
0.313478
0.00676371
-0.113595
0.193354
0.317945
0.010136
0.0395773
-0.0581172
0.162675
-0.501772
0.380772
-0.477523
-0.321553
-0.397578
0.0103466
0.261782
0.289542
-0.416813
0.161194
-0.37407
-0.027803
0.0200472
-0.151413
0.0129569
-0.00611129
-0.160639
0.0163838
-0.0259469
-0.379537
-0.411627
0.297012
-0.385189
0.00493855
0.351499
-0.383233
0.370195
-0.383765
0.00269223
0.377284
-0.386895
0.378846
-0.393353
0.0146778
0.3765
-0.400999
0.369296
-0.402583
0.08316
0.0194233
0.0124384
0.013091
0.00627989
0.0154235
0.389164
-0.411481
0.00324309
-0.333751
0.27513
0.383561
-0.404064
0.00729939
-0.354765
0.246782
0.493223
-0.05799
0.00936843
-0.411738
-0.379969
0.803109
-0.0498654
0.0133434
0.0224602
-0.244827
0.0559986
0.192299
-0.199036
0.0163565
0.206237
-0.187064
0.00260085
0.200617
-0.191807
-0.000344584
0.191723
-0.186053
-0.0049524
0.199452
-0.179861
-0.0121914
0.210256
-0.141466
-0.0203945
0.248509
0.0943647
0.0697865
-0.018346
-0.00954741
0.0978529
-0.0430232
0.440806
-0.471051
0.460444
-0.470289
-0.304473
-0.394814
-0.000889608
0.301282
0.38014
-0.394323
-0.0021464
-0.305536
0.00256761
0.000226466
0.0033317
-0.000319788
0.00654096
0.0252849
0.0233954
0.0424763
-0.012481
0.00668749
0.176959
0.281189
0.234526
0.0792766
0.356572
0.141928
0.0665728
0.0198824
0.0126666
-0.00583379
-0.00377752
0.00359995
0.006012
-0.0559908
-0.000848636
0.0645814
-0.0596244
0.466551
-0.472758
0.469694
-0.482402
-0.316415
-0.405164
0.00116732
0.29928
0.390404
-0.398293
0.000182733
-0.307774
0.00445822
0.00197928
0.00049869
0.000338074
0.000839431
0.00153155
0.00242283
0.0019391
0.00522614
0.00795557
0.0759134
-0.00131406
-0.000498976
-0.00242965
0.000427955
0.00101925
-0.0100105
0.0232602
-0.268032
-0.000663985
0.00369077
0.000184225
-0.00362535
0.409885
-6.27195e-05
-0.428466
0.414129
-0.418155
-0.00146751
0.428076
1.34302e-05
-0.434306
0.42191
-0.422579
-0.000607742
0.433734
0.00025733
-0.436383
0.425398
-0.424401
3.47872e-05
0.436552
0.000482861
-0.438844
0.428781
-0.424927
0.000649517
0.438525
0.000404427
-0.441981
0.432724
-0.422858
0.00155272
0.438366
-0.000829531
-0.44299
0.434746
-0.412677
0.00246148
0.42763
-0.00376404
-0.435102
0.428954
-0.235496
-0.000283831
0.233849
-0.0143502
-0.0298766
-0.031351
-0.032794
-0.4105
0.102349
0.0909836
-0.034935
-0.0719894
-0.0358431
-0.468129
0.098651
-0.120012
-0.200912
-0.0734659
-0.057661
-0.0604366
-0.0257969
-0.0115505
0.00195553
-0.000549031
-0.00941949
-0.011719
-0.00689695
-0.0132446
-0.0261634
0.00458377
0.207819
0.243674
0.238972
0.275339
0.340513
0.324186
0.253558
0.255227
0.166526
-0.148082
0.0478039
-0.0173747
-0.0121681
0.0433897
-0.129104
-0.000351198
-0.000203093
-0.000417239
3.24989e-05
-0.0815585
-0.092917
-0.0920852
-0.0825562
0.0818424
-0.0694756
0.00257795
0.09251
-0.0798304
-0.0801553
0.00255843
0.0921704
-5.2232e-06
1.52804e-05
4.11601e-05
4.56463e-05
-0.0024329
0.00327172
-0.00166587
-0.000914857
-0.000110798
0.000513255
0.00127303
0.00538505
0.00397491
0.00213298
0.00942047
-0.00266569
0.0564608
-0.080556
0.477369
-0.492858
0.490778
-0.0101911
-0.144161
-0.021574
0.0397132
-0.00425605
-0.00945267
-0.00492959
-0.0276427
-0.0577655
-0.115157
-0.263165
-0.269066
-0.670206
-0.316148
-0.276417
-0.00938808
-0.108977
0.0857108
-0.541825
-0.323792
-0.151475
0.24541
0.0197717
0.0128095
-0.256594
0.271564
0.00160124
-0.0321231
-0.281898
0.272872
0.000478125
-0.0358201
-0.275108
0.271962
0.00234013
-0.058711
-0.262498
0.19391
-0.154544
0.12662
0.0959867
0.283333
-0.133132
-0.0770442
0.0420973
0.170535
-0.557784
-0.0310471
-0.32658
0.284667
0.262278
0.250274
0.314206
0.151895
0.0344676
0.121374
0.183521
0.303202
-0.141097
0.0291302
0.224775
-0.193337
0.000228807
0.196518
-0.199084
-0.00249296
0.190506
-0.194504
-0.00145949
0.18919
-0.192333
-0.00127968
0.188475
-0.193468
-0.00270526
0.182026
-0.204165
-0.016102
0.154499
-0.236373
-0.088035
-0.0038097
-0.318384
-0.197135
0.115004
-0.313698
0.347073
-0.368412
0.0103402
-0.38603
0.398183
-0.00605334
-0.2296
0.0146595
0.226286
-0.223855
0.000791163
0.00131973
0.000388208
0.000312086
0.000482197
0.000447812
0.000155286
0.000335725
0.000878399
0.00124078
0.00381755
0.000549354
0.0612511
-0.0644062
-0.00184507
-0.000448949
0.00266102
0.00033231
0.301429
0.38826
0.0025001
-0.321513
0.31453
0.000224184
-0.323974
0.313392
0.000618119
-0.330903
0.307764
0.00123655
-0.341277
0.297318
0.00248211
-0.348565
-0.0152752
-0.0121725
-0.0660162
-0.0656032
-0.106389
-0.051631
-0.0253068
-0.0113735
-0.00760578
-0.0150172
-0.0277198
0.00176211
0.202743
0.235573
0.228754
0.324752
0.194368
0.00214068
-0.0220963
-0.0116226
-0.00606711
-0.0095311
-0.0222404
-0.0477744
-0.0990032
-0.232735
-0.247735
-0.440989
-0.332067
-0.104619
-0.105388
0.2245
0.0263129
-0.0275379
-0.021895
0.111145
0.00459841
-0.0885457
-0.0847433
0.0878165
-5.40621e-05
-0.0979316
-0.0937305
0.0768431
-0.000397442
-0.121748
-0.116166
0.0371789
-0.154054
0.0980291
0.0950357
0.0994694
0.0865016
-0.135214
0.00948147
0.0500977
-0.153186
0.0367737
-0.147942
0.173853
-0.402357
-0.0216106
-0.387174
0.263
0.270914
0.271239
0.266179
0.261426
0.264622
-0.418862
-0.0253333
-0.377866
0.270794
0.289974
0.271968
0.286229
-0.0213618
-0.402915
-0.400376
0.17426
0.272237
0.240429
0.238024
0.296346
0.283814
0.22752
0.0692298
0.151284
0.0616337
-0.0327651
0.0758581
0.0116173
-0.0553311
0.0574797
0.00250654
-0.0570715
0.0565788
0.000359333
-0.0581553
0.0558284
-0.000154357
-0.0563906
0.0575327
-0.000757196
-0.0578523
0.0557089
-0.00382147
-0.0605672
0.0528316
-0.0141117
-0.0806046
0.0308759
-0.064119
-0.155712
-0.074323
-0.231171
-0.278533
-0.28427
-0.191438
-0.140717
-0.216356
-0.00912105
0.158197
-0.119529
0.0116132
0.13114
-0.130789
0.00552119
0.136679
-0.14018
-0.00463621
-0.00941936
-0.243098
-0.000773935
-0.394249
0.000461827
-0.3907
0.00209137
0.408812
-0.414962
0.000486832
-0.411768
0.00481479
0.417965
-0.37896
7.00363e-05
0.379591
0.00197699
-0.379219
7.84022e-05
0.379763
0.00129862
-0.37961
0.000112526
0.3798
-0.000687809
-0.380125
0.000197571
0.380044
-0.0010302
-0.380601
0.000553502
0.380641
-0.00569048
-0.377167
0.00276873
0.377464
-0.00765857
-0.00841757
-0.470776
-0.340275
0.00781635
0.438559
-0.00287164
-0.465778
-0.323128
0.00645319
0.4554
-0.00093437
-0.463141
-0.318222
0.00243223
0.459502
-0.000691702
-0.461806
-0.315539
0.000181639
0.461844
0.000650691
-0.459049
-0.313781
-0.00194254
0.462815
0.000775774
-0.454523
-0.310883
-0.00546685
0.465999
0.00302032
-0.436386
-0.303024
-0.00579627
0.473449
0.010608
-0.379346
-0.268165
0.024887
0.499372
0.0603086
-0.0432149
0.11542
-0.197691
-0.319635
-0.00324308
-0.0894487
0.00138558
0.274035
-0.0226375
0.00383963
-0.230942
0.00103055
0.395239
-0.386398
-0.00242323
-0.389123
0.0108431
-0.373442
-0.000729444
0.375594
0.00841874
0.00305189
0.000768368
0.00448092
0.406634
0.00278963
-0.00347865
-0.10107
-0.000282252
0.109239
-0.000151135
0.000358117
0.000492948
-0.0173996
-0.0201118
-0.0144148
-0.157554
0.0158513
-0.0258288
0.00241892
0.00276506
0.00488938
0.357798
0.295282
0.00169384
-0.00321138
-0.0134092
-0.0160436
0.262086
0.00966127
-0.33386
0.299068
-0.00218301
-0.323684
0.310811
-0.000663504
-0.000699796
0.00112438
0.00410965
0.00126699
0.00271413
0.0056398
0.00267516
0.00135818
0.00115711
0.00454718
0.000347759
0.000992492
0.00244242
-0.330939
0.291258
0.461863
-0.477016
0.470331
-0.475779
-0.001163
-0.374778
-0.00358321
0.37809
-0.00468173
-0.371916
-0.0119235
0.389761
0.0232705
0.0291689
-0.265867
-0.000913108
0.285522
-0.299551
-0.000682522
-0.493629
-0.000938906
0.491939
-0.431375
-0.000186501
-0.436761
0.000126093
0.436772
-0.431695
-5.50028e-05
-0.428981
-5.77494e-05
0.429144
-0.441465
-0.000232902
-0.420359
-0.00132927
0.419575
-0.418901
-0.00375189
0.415279
-0.409443
-0.00774224
-0.00983508
-0.00227127
-0.000981296
-0.000132782
0.000150194
0.000440175
0.00128364
0.0026502
-0.00459198
0.00120195
-0.105899
0.117634
-0.116279
-0.108791
0.00108893
0.000653485
-0.00226046
0.00637337
0.103174
0.000939414
-0.00122748
-0.0096034
0.0125785
-0.0110151
-0.154318
0.0150783
-0.0327131
0.23139
0.0112078
-0.011073
-0.00934767
0.00615478
9.0735e-05
0.0791195
0.0801667
-0.00241579
0.0683846
0.105783
-0.00182562
-0.00230262
-0.00237176
-0.000815577
0.00818945
-0.122988
0.314687
0.0183405
-0.469578
-0.00299843
0.47549
-0.417224
-0.00208173
-0.430678
-0.000209731
-0.425117
-0.000175457
-0.426549
0.000932944
0.427454
-0.438517
0.000178932
-0.419644
0.000624981
0.420226
-0.420168
-0.000398197
0.420388
-0.000272957
8.74513e-05
0.000453412
0.00115139
0.00188065
0.00250045
0.000135495
-7.45433e-05
-0.00254125
-0.00242204
-0.00914227
-0.0115083
-0.00241226
-0.00247968
4.04821e-05
5.30306e-05
0.000307328
0.000129746
0.000330049
0.000262169
0.000337291
0.000404655
0.000382721
0.000262556
0.00156968
0.0019126
0.00243658
0.00904434
-0.000572952
0.0640957
-0.330056
-0.083536
-9.71834e-05
-0.0311913
0.141834
-0.144719
-0.470532
-0.170382
-0.00272448
0.0411949
-0.000192821
-0.333545
-0.141372
-0.0935009
0.213329
0.0257369
-0.0235744
-0.0413397
0.120299
0.00437792
-0.0823073
-0.102461
0.102954
0.000230245
-0.0910018
-0.107993
0.0954715
0.000563432
-0.117006
-0.122398
0.0257229
-0.00706832
0.00114206
0.00145271
0.411093
-0.371737
0.00251039
0.384656
-0.0139809
0.0103026
-0.486031
0.0018043
-0.301762
0.309569
-0.00259403
-0.294117
-0.512241
0.442876
-0.0278226
0.0448871
0.166543
0.00173498
0.358512
0.266368
0.299878
-0.398136
0.00470978
-0.337279
0.0105697
-0.373442
0.00806329
-0.357801
0.0104579
-0.359575
0.00910078
-0.383728
0.279591
0.273373
-0.0192392
-0.481666
-0.387282
0.171069
-0.119005
0.149374
0.0839099
0.0997057
-0.146274
0.0412231
0.0312803
-0.157878
0.0623058
0.114253
-0.1369
0.214602
-0.114975
0.017905
-0.127111
0.0221304
-0.138636
-0.108642
0.0212585
-0.00879343
-0.00200957
-0.00137715
-0.000297783
0.000319914
0.000388826
0.000521915
0.00126023
0.00259092
-0.00464811
0.00130256
-0.0692265
0.0817352
0.000595232
0.0164895
0.0118321
0.00953192
-0.118971
-0.00872848
0.127135
-0.104664
-0.0572987
0.128954
-0.1405
-0.19198
-0.216685
0.152796
0.157773
-0.0094546
-0.0133001
-0.043084
0.00500545
0.161742
-0.0294167
-0.0378926
-0.0213712
0.115783
0.115866
-0.0380673
-0.0291472
0.148841
-0.0817259
-0.173036
-0.0821548
0.159342
-0.0159719
-0.0169454
-0.0207095
-0.00550215
0.00170514
0.27364
-0.0231087
0.0105196
-0.000454268
0.000340912
0.000561129
0.0003437
-5.48564e-05
-0.000711521
-0.00177594
-0.000239887
-0.00125652
0.000342998
-0.0112208
-0.00417766
0.00615604
-0.0157933
-0.00757764
-0.00748483
-0.209388
0.201226
-0.00575942
-0.0047155
0.00982432
-0.00486248
-0.00448407
0.034072
0.0709378
0.0362932
0.252802
-0.127239
0.0163396
0.132999
0.167837
-0.066519
0.00670961
-0.00242259
0.0110192
-0.00269137
0.00127915
-0.0191879
-0.00379232
0.000146936
7.73963e-06
-0.000508708
-0.00118892
-0.000816778
-0.00206761
0.00146534
0.00279432
0.000597439
-0.00526021
-0.00109442
-0.000215845
-0.00017931
-0.000338767
0.000606297
0.00753284
0.00234146
0.0038719
0.00222002
0.000848312
2.77518e-05
0.000757467
0.000799281
0.00168497
0.00295704
-0.408026
0.371022
-0.373408
0.374317
-0.373995
0.00191888
-0.414023
0.413905
0.00441446
0.00291397
0.00180111
0.000793875
0.404757
0.00244213
-0.00376668
0.128066
-0.00276552
0.00239119
0.0114822
-0.0188843
0.135539
0.106438
-0.0470731
0.0187205
-0.000398694
-0.000168504
0.0694871
-0.0023902
-0.000140605
0.0490295
-0.148315
0.0430079
0.00051561
0.0172216
0.0125993
0.00134115
-0.0131616
0.00532823
0.011584
-0.047172
-0.0433204
0.136004
-0.0574354
-0.10456
-0.0190507
0.128428
-0.00855737
0.0115653
0.0092417
-0.00644092
-0.000351002
0.00252946
0.00924194
-0.00365057
-0.00404911
-0.00107846
-0.000629374
-0.000180008
0.00116595
0.000737973
0.000629843
0.000416533
0.416068
-0.416442
0.374746
-0.375234
0.375683
-0.377362
0.00182583
-0.418859
0.417313
0.00135986
0.000555167
3.87972e-05
-0.000359278
0.000547926
-0.00105543
0.000547702
0.000235378
0.000440359
0.000339454
0.00064741
0.000221394
0.000682229
0.00200998
0.0112162
0.0101519
0.0364936
0.00174008
0.000744307
0.00014385
-0.000751163
-0.00270012
-0.00112676
-0.00113184
0.000127692
-0.000259259
-0.000204355
0.000244266
0.00027282
0.000262519
1.60888e-05
-0.00109223
-0.0028975
-0.00303244
-0.00118054
1.61813e-05
0.000111152
0.00019674
0.000303135
0.000414834
0.000733886
0.000629945
0.000588028
0.00130345
0.00110922
0.000608396
0.00176725
0.00339258
0.00138927
0.00205148
0.0490849
-0.0100088
0.00442553
0.00143424
0.00536085
0.108479
-0.00504538
-0.0156656
0.0776596
0.0233136
-0.333684
-0.116107
-0.253856
0.227609
-0.154981
-0.165943
0.203756
-0.269925
-0.0145273
-0.019758
-0.224513
0.19773
-0.00314064
-0.0110214
-0.00113221
0.00404322
0.00565988
0.0826706
0.0258117
-0.153358
-0.131828
0.2503
0.0249296
-0.0592011
-0.0171831
0.103361
0.00337601
-0.118093
-0.0765599
0.0777433
-0.000278664
-0.123637
-0.08497
0.0675506
-0.00111964
0.107674
0.103575
0.00619409
0.129536
-0.125941
0.000485684
-0.113733
-0.000634766
-0.00261733
-0.000444469
-3.60687e-05
0.000179306
0.000198248
0.000172768
0.000138833
4.12168e-05
-0.00104113
-0.00283756
-0.00147161
-0.323192
0.309014
-0.000644172
-0.321803
0.314596
0.472418
-0.477349
0.473352
-0.483116
0.000268398
-0.380289
0.00259367
0.376319
-0.000370018
-0.376147
-0.000188159
0.376177
0.00199366
0.00225016
-0.276988
0.00077374
0.281136
-0.302734
0.000455635
-0.493821
0.000438816
0.496276
-0.432737
-0.000147133
-0.435904
0.00046306
-0.431461
-0.000688852
-0.425328
-0.00131388
0.421514
-0.43733
0.000104504
0.41919
-0.00118173
-0.412608
0.411608
-0.00121756
-0.426307
0.430875
-0.416698
-0.000148727
0.000428465
0.00186982
0.00157148
0.00081252
0.000273752
-0.000214991
-0.00107427
-0.00118141
-0.000169864
0.000825006
0.0020703
0.00212349
0.00460794
-0.323793
0.314672
0.000991328
-0.329135
0.310748
0.473524
-0.494287
0.471282
-0.503985
0.0127289
-0.431017
0.0397846
0.375237
0.00242414
-0.394753
0.0114056
0.378062
0.000647888
0.00701364
-0.27428
0.00566825
0.292577
-0.309906
0.0015511
-0.490692
0.00272978
0.496186
-0.424868
-0.00168297
0.416043
0.0037912
-0.470455
0.274673
-0.00110226
-0.316786
0.281415
-0.294999
0.0153877
-0.0361067
-0.018011
-0.0312913
-0.0558389
0.350292
-0.497089
0.1077
-0.0795566
-0.0309494
-0.0118316
-0.00441284
-0.00260895
-0.0041833
-0.00112195
0.0659136
0.679902
0.340886
-0.176987
0.119336
0.0610258
0.388044
-0.336556
0.365615
-0.0217694
-0.238513
0.0115745
0.431518
-0.407997
-0.00108782
-0.40496
-0.000100844
-0.409582
-0.000255149
-0.419362
0.00181764
0.4232
-0.433186
0.000413592
-0.417845
0.00171314
0.419815
0.0016071
0.00109132
0.440326
0.00245036
0.435077
-0.000342153
-0.00277447
-0.00523457
-0.0178025
0.00284127
0.238549
0.0165946
0.0207527
0.0822316
0.144497
-0.19981
-0.00056389
-0.296451
0.00103251
-0.490969
-0.00226494
0.488113
-0.428432
-0.000795245
-0.435757
-3.96603e-05
-0.429895
-3.89774e-05
-0.428468
0.000358999
0.428922
-0.440524
-1.23155e-05
0.440904
-7.05064e-05
0.000399603
0.441095
-2.93841e-05
-0.000162103
-0.000852077
-0.00227162
0.424377
-0.00450643
0.400289
0.0239358
0.0122538
0.301997
0.0119759
0.0071372
-0.000543524
0.306884
0.00116906
0.0048055
-0.276175
-0.000370378
-0.301476
-0.000148779
-0.493698
-0.000190479
0.494053
-0.432521
-1.18668e-05
-0.436872
0.000280263
-0.432209
-0.000273407
-0.428415
-0.000576196
0.427872
-0.441536
-0.00045213
0.435399
-0.000942816
-0.00040573
3.97146e-06
0.000145412
0.000234352
0.000428935
0.0012492
0.00233863
0.00126508
0.00124512
0.000622002
0.00109385
-0.00154695
-0.000584827
0.000171814
0.000441109
0.000522727
0.00047394
0.000337741
0.000547851
0.00103726
0.00309134
0.00260334
-0.327769
-0.00851225
-0.32108
0.356739
-0.00731587
-0.338559
-0.346257
0.363641
0.339997
-0.00718135
-0.323181
-0.369108
0.386403
-0.347227
-0.00880022
-0.310607
0.349558
0.367667
0.362302
0.354364
-0.00807435
-0.34191
-0.317506
0.00263433
0.346376
-0.00667239
-0.362981
-0.331035
0.00116666
0.342533
-0.00242612
-0.371467
-0.33714
-0.346414
-0.354505
-0.00276421
0.353466
0.360948
0.0012152
0.335649
-0.00270018
-0.328973
-0.377951
0.384214
0.00111864
-0.303312
-0.455646
-0.00622504
0.314714
0.00210913
-0.29594
-0.437929
-0.00708468
0.331924
0.390935
-0.28113
0.0226502
-0.273285
-0.00967097
-0.27699
0.0223278
-0.272457
-0.00962367
-0.27807
0.0234518
-0.277603
0.386219
0.335988
-0.0105121
0.0151401
-0.00135505
-0.20724
-0.248422
-0.235247
-0.260809
-0.248335
-0.250308
-0.257131
-0.211135
-0.326767
-0.258373
-0.236149
-0.247706
-0.167351
-0.0723013
-0.0897445
0.148525
-0.166127
0.390875
0.395206
0.392162
0.393827
0.408197
0.383685
-0.160948
0.129738
-0.0720069
-0.167505
-0.0901906
0.161882
-0.0167683
-0.00345022
-0.00345224
-0.00160031
-0.000700021
0.000389138
0.000356256
0.35868
7.0601e-06
-0.350111
-0.358518
-0.331642
-0.382158
-0.000228098
0.333465
0.382524
0.00043972
-0.306079
-0.461556
-0.00225861
0.310682
0.464625
0.00152732
0.0604472
-0.0593482
-0.0006637
0.0603123
-0.059716
-6.16714e-05
0.0611355
-0.0592298
0.00218977
0.0677623
-0.0534162
0.0128025
0.0948675
0.033717
0.0189396
0.00617588
0.00298992
0.00041661
-4.14626e-07
-0.000519223
2.32894e-05
-0.0012847
-0.000864143
-0.00275583
-0.0613613
0.466846
0.00310764
0.0576199
-0.0799517
-0.0125611
-0.0217215
-0.00855265
-0.052323
0.0361487
0.0108296
-0.380815
0.0235397
-0.262886
-0.0107159
0.0156294
0.000699241
-0.166765
-0.284078
-0.276473
-0.231373
-0.073052
-0.156031
-0.0629586
-0.124471
-0.353834
0.060388
0.499302
0.381266
0.41069
-0.160539
-0.341842
-0.206291
-0.000502934
0.034752
0.0227069
0.0130538
0.0050386
0.00174403
-0.000155831
-0.307228
-0.465893
0.463797
0.3096
0.000286349
0.00185622
0.00568548
0.00624835
0.0196062
0.00725164
0.00140598
-0.000325517
5.59781e-05
0.38028
0.00167327
-0.33296
-0.385548
-0.306464
-0.472828
0.00105075
0.310474
0.463861
0.00238319
0.0015292
0.00163091
0.0011284
0.00174016
0.00301611
-0.42238
0.378403
-0.379012
-0.0058583
0.00248566
0.00119803
-0.00261739
0.000612204
0.000174344
0.418393
0.000608266
0.000403715
0.418093
0.00266928
0.000251656
0.000846411
0.00153552
-0.000903228
-1.47658e-05
0.000488228
8.99357e-05
0.000311791
0.000143557
4.15011e-05
0.000375042
0.00137269
0.000607049
0.000136552
6.03212e-05
-0.00077453
-0.000246099
-0.000258204
-0.000850445
-6.45107e-05
0.000225197
0.000238054
-0.000393595
-0.000306844
-0.000161601
-0.000124844
-0.00367082
-0.0037907
-0.0168522
-0.0064255
0.369317
-0.00238076
0.000270986
0.000183804
-0.00165013
-0.00177265
-0.00095297
-0.0069026
-0.00628947
-0.00472316
-0.000878718
-0.335758
0.302251
0.00468649
-0.33377
-0.0136312
-0.0135506
-0.0649792
-0.0829201
-0.304052
-0.306403
-0.491519
0.123203
0.0468489
0.254479
-0.0895949
0.132024
-0.0148134
-0.150795
0.135726
-0.00339177
0.105819
-0.00345228
0.127651
-0.140876
-0.0118953
-0.00374491
-0.00461617
0.00203136
-0.0170214
0.1133
-0.00565916
0.00420553
0.00423336
0.00271133
0.00154149
0.00066813
0.000571278
0.00597936
0.00514433
0.0128782
0.0111392
0.0318819
0.00659753
0.0029773
0.00100031
0.302338
-0.305
0.00113157
-0.493784
0.00136394
0.498989
-0.431364
-0.000627868
-0.431895
0.000461141
0.426893
-0.000279015
1.59092e-05
0.000313455
0.000441534
0.0011123
0.00238565
0.00140058
0.000870173
0.000482407
0.000187663
9.49466e-05
0.000143212
0.000166251
0.000155189
0.423381
9.03153e-06
0.429096
3.29025e-05
0.411489
0.39503
0.00160054
0.393474
0.237302
0.00625434
0.00135983
-0.000159148
8.24937e-05
-0.0008253
0.430663
0.00152196
-0.0010512
0.280316
0.000160287
0.000557227
-0.000330292
0.30253
0.00104603
0.00344924
-0.276089
0.00273842
0.285657
0.000128137
0.00212235
0.000998871
0.000669003
-7.04148e-05
0.432533
0.000161261
0.431931
5.58029e-06
0.00065166
0.433371
0.000297658
0.437568
-0.000127265
0.00183466
0.433556
-0.00159258
0.301901
-0.000397608
0.00598421
-0.277765
0.00951347
0.297629
-0.00969936
-0.000289764
-0.010634
-0.0360007
-0.0843489
0.00312997
-0.0122657
-0.005308
0.00406166
0.00367738
0.431219
-0.000634077
-0.00137232
-0.00134735
-0.000285609
-0.00485353
-0.00023657
0.000667064
0.000513363
0.436958
0.431163
-0.000330079
-6.74631e-05
-0.000875493
-0.00168046
-0.00186272
-0.00799358
-0.00299372
-0.00310749
-0.00165226
-0.000635837
0.439648
-0.00125715
-0.000223862
0.000384216
-0.000265673
-0.0015158
-0.00546402
-0.0165361
-0.00397037
0.000125738
0.000438873
0.00185165
-0.00210596
0.00244769
0.00420208
-0.00733278
0.0324241
0.0671807
-0.0488391
0.348174
-0.00152868
-0.023043
-0.0338987
-0.0187505
-0.00638578
8.77542e-05
0.00653487
0.0187548
0.0336912
0.0362427
0.000684868
0.0177587
0.0176
-0.326834
-0.16627
-0.342274
-0.167961
-0.000436682
0.0211735
0.00533945
0.00222525
0.320233
0.380535
-0.00141848
0.00309303
0.00127048
0.00252733
0.00138462
0.00299418
-0.00385589
-0.020507
0.152693
0.350148
0.0146331
-0.000485329
0.000992696
0.00102157
0.000517294
0.000598804
0.000256376
0.000259797
0.000326179
-0.000548314
0.000151814
0.000122953
0.000908953
-0.000410708
-0.000720388
-0.361885
0.00260883
-0.352465
0.340042
0.0068925
-0.354501
-0.366437
0.349399
0.327059
0.00461876
-0.333838
-0.390236
0.373905
-0.000747253
0.312624
0.461977
0.00514051
-0.00106016
-0.00133335
0.0011618
0.00189507
0.00464472
0.0771837
0.121974
0.186951
0.441997
0.0288132
0.228722
0.338638
-0.0156838
-0.00435066
-0.0110908
-0.00291489
-0.00164333
-0.000282536
0.331683
0.355805
0.347728
0.337643
0.00279114
-0.377643
-0.343819
-0.000934871
0.332763
0.00727957
-0.379917
-0.349341
-0.00227429
0.321497
0.342648
0.305002
-0.00161061
-0.00242319
-0.00270059
-0.000813795
0.00026102
0.00166346
0.000323844
0.000267885
-0.000811542
-0.000344034
-0.00311833
0.0294674
-0.0032302
-0.00203058
-0.0049141
-0.00389296
-0.00241088
-0.0041087
-0.0017562
0.0842524
-0.0020015
0.00187785
0.000257741
-7.20189e-06
0.00509669
0.00446335
-0.031582
0.1813
-0.0788714
-0.306238
-0.387692
0.029071
-0.177488
0.0737336
0.023343
-0.109364
-0.117619
-0.0128288
-0.0194053
0.128972
0.118207
-0.0110955
-0.114983
-0.00198808
0.115486
-0.000583376
0.00150403
-0.00011285
0.00134697
0.00329982
0.00343365
0.00236325
0.000690608
0.000549657
-0.00132881
-0.00114752
-0.000182098
-0.000687603
-1.2588e-05
-0.000151652
0.000863354
0.00184123
0.00172105
-0.00235045
0.00310075
0.00657788
-0.0122816
0.385073
-0.0252614
0.0184199
-0.42856
0.00530688
0.00468011
0.0350692
0.00405814
0.00860146
0.0263025
-0.00193467
-0.000736247
-0.00259396
0.00680267
0.0741182
-0.00479826
-0.00276298
-0.00141313
0.00189741
-0.188077
0.218076
-0.0065118
0.00140093
-0.0089326
-0.0224176
-0.0253598
-0.00471238
-0.00223337
0.0904003
-0.00230382
-0.00281104
-0.00530564
-0.000881677
-0.00310284
0.0796703
-0.00519799
-0.00298196
0.00681149
0.00519997
-0.00118578
-0.00132903
-0.000864904
-0.00219703
0.00203279
0.00553689
0.00442136
0.00357511
-0.0087397
0.0173636
0.0174445
0.0201425
0.026814
0.385228
0.052408
0.00810488
-0.0128489
-0.00449938
-0.000123186
0.00401872
0.011736
0.0017308
0.377731
0.316851
0.00111729
-7.15972e-05
0.000349061
0.000318703
0.31504
0.3755
0.000158215
-0.375271
-0.340442
0.340131
0.000311174
0.350963
0.000310957
0.0076624
0.0211398
0.00208729
0.00201993
0.00609085
0.000341533
0.000619399
-0.00598119
-0.0184953
-0.00529679
0.313101
0.334246
0.321384
-0.00596039
-0.00199036
-0.000370044
-0.000131138
-0.000357785
0.372099
0.313826
-0.000177008
0.000374688
0.000116146
-0.000731468
-0.000880706
0.311556
0.363837
-0.0018561
0.000989142
1.60173e-05
-0.000486667
-0.00190689
-0.0104051
-0.0549298
-0.355047
-0.128092
-0.0250208
-0.00335546
-0.000429133
0.000222062
-0.000214447
-0.000536849
0.000885612
-0.00529305
-0.0136418
0.0126462
-0.016685
-0.0330656
-0.0221931
0.0126849
0.22988
0.33069
-0.0161391
0.00289628
0.219925
0.332483
0.00203703
0.209384
0.345779
0.164928
0.00104672
-0.00198328
0.355129
-0.00218725
0.0202261
0.121391
0.020933
0.0447758
0.0474411
0.0450721
0.0596911
0.0376516
-0.000999513
-0.00492068
0.0458759
-0.02159
-0.0100353
-0.00778976
0.0490208
0.00475947
0.0338774
0.0296883
0.207418
0.175081
0.194402
0.185606
0.190149
0.0411096
0.00667578
-0.000791994
-0.00696543
-0.0838761
-0.283505
-0.267896
-1.57942e-05
0.0113503
0.171093
0.000113057
0.432213
0.00325848
0.000579646
0.000184396
-0.000643589
-0.0110528
0.00175029
0.303532
0.434647
0.430237
-0.000218622
-0.0107582
-0.426375
0.00119161
0.00151505
0.00139487
-0.044111
0.474078
0.0125963
0.00670991
0.00224507
0.00579301
0.0941973
0.00329613
0.214651
-0.254061
-0.0315768
-0.449148
-0.00020669
-0.0213368
0.106676
0.000714414
-0.455523
0.408897
0.00553261
0.231118
0.0153451
0.0888805
0.215229
0.0346038
0.0368587
0.00174174
0.00149946
-0.00172427
0.292088
0.0132042
-0.0184212
-0.0260978
-0.00837443
0.0021263
0.000448385
0.000187424
0.000339895
0.000401019
0.000123395
-0.000970595
-0.00151484
-0.0135769
-0.00688336
0.243721
0.019722
-0.408379
0.444978
0.0269825
0.321418
0.00207917
-0.297486
0.307956
0.0302484
-0.269896
0.292236
0.00589114
-0.281164
0.287186
0.00369234
-0.283419
0.286784
0.00264805
-0.284873
0.286459
-0.000573998
-0.287955
0.283119
-0.00714005
-0.294594
0.270551
-0.0333081
-0.309731
0.201926
-0.147381
-0.392069
-0.11943
-0.367658
0.0229488
0.240256
-0.242114
0.0137885
0.251178
-0.248531
0.00516236
0.252306
-0.259405
-0.00292312
0.251524
-0.258285
-0.0213499
0.242869
0.25498
0.393074
0.099464
-0.283713
0.00371485
0.41709
-0.000763304
-0.425006
-0.00188752
0.407513
-0.00248963
-0.411506
-7.0982e-05
0.409104
0.000424528
-0.402976
0.00129045
0.41474
-0.0122553
-0.435889
-0.0189413
0.340042
-0.0603903
0.0781474
0.177267
-0.324529
0.33056
-0.393049
0.370212
-0.382371
0.376317
-0.376865
0.378248
-0.374221
0.379828
-0.372793
0.37872
-0.375157
0.380438
-0.373322
0.390829
-0.332162
0.321345
-0.158524
0.31345
0.394115
0.196167
0.29076
0.211996