/*--------------------------------*- C++ -*----------------------------------*\
| =========                 |                                                 |
| \\      /  F ield         | OpenFOAM: The Open Source CFD Toolbox           |
|  \\    /   O peration     | Version:  2306                                  |
|   \\  /    A nd           | Website:  www.openfoam.com                      |
|    \\/     M anipulation  |                                                 |
\*---------------------------------------------------------------------------*/
FoamFile
{
    version     2.0;
    format      ascii;
    arch        "LSB;label=32;scalar=64";
    class       volScalarField;
    location    "0.7";
    object      p;
}
// * * * * * * * * * * * * * * * * * * * * * * * * * * * * * * * * * * * * * //

dimensions      [0 2 -2 0 0 0 0];

internalField   nonuniform List<scalar> 
400
(
-9.51119e-07
-0.00288335
-0.00827521
-0.0145048
-0.0195834
-0.0216547
-0.0191345
-0.0108771
0.00360677
0.023837
0.00286648
-4.28159e-05
-0.00430891
-0.00895584
-0.0126707
-0.0139911
-0.0115672
-0.00436534
0.00810986
0.0255158
0.00835173
0.00413798
-0.000293158
-0.00438007
-0.00741791
-0.00831044
-0.00596941
0.000469516
0.0114492
0.026712
0.0151188
0.00886459
0.00332897
-0.00107726
-0.00412168
-0.00498126
-0.00278226
0.00317254
0.0132487
0.0272272
0.0215805
0.0130165
0.00591302
0.000709978
-0.00272594
-0.00377443
-0.00172282
0.00398408
0.0136344
0.0270256
0.0261346
0.0151405
0.00620108
-8.02551e-05
-0.00410864
-0.00540696
-0.00337345
0.0024352
0.0122376
0.0258341
0.0269804
0.0134301
0.00247237
-0.00502967
-0.0096876
-0.0111217
-0.00879859
-0.00235675
0.00836619
0.0231708
0.0218149
0.00549179
-0.00763609
-0.0163646
-0.0214866
-0.0227017
-0.019525
-0.0116608
0.00100959
0.018299
0.0073582
-0.0121027
-0.0275477
-0.0373369
-0.042466
-0.0427427
-0.037757
-0.0272998
-0.0112955
0.010115
-0.0214165
-0.0446063
-0.062475
-0.0728312
-0.0769833
-0.074969
-0.0665738
-0.0517665
-0.0305376
-0.00290929
0.0469852
0.0678073
0.0830074
0.0917363
0.0943562
0.0920966
0.0867232
0.0802613
0.0747957
0.0719648
0.0454531
0.0633623
0.0764435
0.084047
0.0865642
0.0850992
0.0811498
0.0763147
0.0719903
0.0691465
0.0442135
0.0599626
0.0715317
0.0783681
0.0808096
0.0797815
0.0765105
0.072227
0.0677343
0.0636127
0.0432981
0.0578313
0.0685935
0.0750295
0.0773716
0.07637
0.0730481
0.068388
0.0627539
0.0565966
0.042491
0.0565939
0.0671533
0.0735397
0.075849
0.0746735
0.0708962
0.0653402
0.0580552
0.0495536
0.0416218
0.0562038
0.0673138
0.0741757
0.0767128
0.0753687
0.0709388
0.0641641
0.0548927
0.0438537
0.040446
0.0566804
0.0693763
0.0775272
0.0808314
0.0795745
0.0744995
0.0663265
0.0547864
0.0409535
0.0385392
0.0579631
0.0736911
0.0843851
0.0894288
0.0888966
0.083473
0.0738825
0.0597795
0.0427172
0.0352028
0.0598509
0.080659
0.0958338
0.104291
0.105752
0.100751
0.089974
0.072982
0.0519865
0.0294102
0.0619597
0.0907381
0.113368
0.128056
0.133882
0.13097
0.119775
0.0996282
0.0736374
-0.0706358
-0.0984062
-0.118529
-0.128228
-0.129455
-0.122775
-0.108445
-0.0868082
-0.0579749
-0.0217308
-0.143728
-0.17708
-0.198592
-0.205078
-0.199939
-0.184914
-0.161225
-0.12989
-0.0912056
-0.0445489
-0.243566
-0.283582
-0.304149
-0.302473
-0.285225
-0.256529
-0.219252
-0.175347
-0.125229
-0.0675688
-0.379241
-0.426533
-0.440354
-0.421156
-0.382556
-0.332775
-0.276866
-0.21764
-0.155218
-0.0870457
-0.569983
-0.621006
-0.613708
-0.559985
-0.486315
-0.406309
-0.326833
-0.250596
-0.176396
-0.0996492
-0.856463
-0.891496
-0.830023
-0.713507
-0.586774
-0.46731
-0.36123
-0.268686
-0.185347
-0.103608
-1.31972
-1.27189
-1.09001
-0.870063
-0.670204
-0.504732
-0.373127
-0.268521
-0.181068
-0.0993554
-2.14123
-1.79776
-1.36973
-0.999389
-0.712898
-0.504158
-0.355953
-0.24847
-0.164479
-0.0889659
-3.78781
-2.4659
-1.54595
-1.00475
-0.659395
-0.439032
-0.299158
-0.205665
-0.136112
-0.0744692
-6.55337
-3.07045
-1.42374
-0.793497
-0.481804
-0.308746
-0.209632
-0.14719
-0.101239
-0.0589371
0.0204392
0.0639405
0.104266
0.138407
0.163574
0.177736
0.180092
0.170398
0.14731
0.114984
0.00917297
0.0657599
0.120649
0.170425
0.211158
0.239175
0.251935
0.247543
0.222915
0.183071
-0.00218743
0.0678653
0.138772
0.20734
0.268778
0.317474
0.348204
0.355807
0.333177
0.285145
-0.0112123
0.0712099
0.15813
0.247559
0.334712
0.412378
0.472016
0.503129
0.490349
0.434776
-0.0160108
0.0761163
0.177279
0.287891
0.404759
0.520601
0.624218
0.698311
0.712953
0.656208
-0.0161783
0.0815469
0.193291
0.323006
0.471285
0.633981
0.800548
0.948534
1.02813
0.995771
-0.0131018
0.0850443
0.201906
0.345687
0.523258
0.738649
0.988963
1.25417
1.47033
1.53957
-0.009511
0.0829664
0.197383
0.345805
0.543089
0.807583
1.15533
1.5878
2.07459
2.47442
-0.0083696
0.0710292
0.172423
0.308842
0.500447
0.780851
1.19726
1.8212
2.83599
4.26705
-0.0104601
0.0507242
0.130601
0.238849
0.392799
0.628635
1.01798
1.75157
3.52092
7.12668
)
;

boundaryField
{
    movingWall
    {
        type            zeroGradient;
    }
    fixedWalls
    {
        type            zeroGradient;
    }
    frontAndBack
    {
        type            empty;
    }
}


// ************************************************************************* //
