/*--------------------------------*- C++ -*----------------------------------*\
| =========                 |                                                 |
| \\      /  F ield         | OpenFOAM: The Open Source CFD Toolbox           |
|  \\    /   O peration     | Version:  2306                                  |
|   \\  /    A nd           | Website:  www.openfoam.com                      |
|    \\/     M anipulation  |                                                 |
\*---------------------------------------------------------------------------*/
FoamFile
{
    version     2.0;
    format      ascii;
    arch        "LSB;label=32;scalar=64";
    class       volVectorField;
    location    "0.8";
    object      flux;
}
// * * * * * * * * * * * * * * * * * * * * * * * * * * * * * * * * * * * * * //

dimensions      [0 1 -1 1 0 0 0];

internalField   nonuniform List<vector> 
5712
(
(-0.322442 0.542266 0.357981)
(-0.412546 0.312983 1.17099)
(-0.754334 0.869147 0.286797)
(-1.11145 0.575278 1.1988)
(-1.13904 0.952748 0.211703)
(-1.95903 0.710187 1.22796)
(-0.864887 1.47143 0.326457)
(-2.18997 1.85816 1.85365)
(-0.696437 1.94548 0.39984)
(-1.52755 2.4159 2.5378)
(-1.04129 1.26969 0.40166)
(-1.5895 1.11297 1.87205)
(-0.926855 0.804995 0.3921)
(-1.22839 0.64547 1.56701)
(-0.410157 0.407938 0.408103)
(-0.472557 0.276992 1.40768)
(-0.744011 0.879322 0.246038)
(-0.854677 0.872591 0.157786)
(-0.944368 0.769348 0.661437)
(-0.938967 0.888705 0.39798)
(-0.7339 1.18357 0.236478)
(-0.895996 1.0257 0.128158)
(-1.0725 1.39719 0.705469)
(-0.958859 1.09756 0.348807)
(-0.269907 0.374925 0.278547)
(-0.21055 0.263252 0.211524)
(-0.334426 0.213551 0.888747)
(-0.231902 0.161401 0.64991)
(-0.630938 0.438973 0.210889)
(-0.519658 0.356346 0.161491)
(-1.06507 0.27267 0.872709)
(-0.789265 0.226966 0.657454)
(-0.821015 0.853968 0.497179)
(-0.859509 0.861729 0.213309)
(-0.933183 0.844892 0.433827)
(-0.915974 0.673581 0.197509)
(-0.349899 0.631629 0.207734)
(-0.263191 0.516768 0.47469)
(-1.90798 0.509711 1.64415)
(-2.55609 0.587291 0.437232)
(-1.2442 0.817013 0.590343)
(-1.52514 0.821841 0.185639)
(-2.52007 1.76294 2.07674)
(-3.27969 1.83412 0.551169)
(-1.31132 1.213 0.536174)
(-1.50328 1.26187 0.16759)
(-1.43763 0.740181 1.19887)
(-2.0312 0.62438 0.366616)
(-1.26981 0.778434 0.61534)
(-1.67553 0.548738 0.205956)
(-0.754668 0.363139 1.06411)
(-1.20503 0.380512 0.334274)
(-0.152222 0.319875 0.370589)
(-0.0521135 0.499534 0.183758)
(-0.158911 0.168811 0.483986)
(-0.0580561 0.218524 0.193737)
(-0.457422 0.434403 0.402282)
(-0.187367 0.657526 0.216066)
(-0.61794 0.263714 0.469021)
(-0.231105 0.324313 0.185752)
(-0.455043 0.466504 0.491753)
(-0.172984 0.874945 0.284109)
(-0.465313 0.32928 0.403334)
(-0.15131 0.576668 0.18155)
(-0.782647 0.122634 0.569621)
(-0.252309 0.33858 0.209763)
(-1.0088 0.102617 0.192325)
(-0.34473 0.251487 0.0686246)
(-1.1506 0.755168 0.646004)
(-0.586125 0.942441 0.45946)
(-1.05833 0.804623 0.385221)
(-0.626726 0.953688 0.284891)
(-1.05 0.908675 0.664147)
(-0.680062 0.906787 0.546267)
(-0.930018 0.9509 0.354771)
(-0.683097 0.910255 0.302485)
(-0.860533 0.705968 0.387701)
(-0.51791 0.972165 0.273037)
(-0.864918 0.703518 0.577454)
(-0.456296 0.948941 0.404958)
(-1.09688 0.80412 0.242526)
(-0.688719 0.956344 0.178024)
(-1.10246 0.810461 0.108446)
(-0.692553 0.959273 0.0884589)
(-0.987073 0.974395 0.217743)
(-0.717026 0.907883 0.184942)
(-1.00043 0.979189 0.095858)
(-0.716546 0.903917 0.0939385)
(-0.928553 0.660173 0.247205)
(-0.58826 0.982855 0.166447)
(-0.962409 0.642186 0.114489)
(-0.601 0.99057 0.0729012)
(-0.892513 0.864673 0.362833)
(-0.400387 1.07294 0.202971)
(-0.430705 1.09153 0.284421)
(-0.542038 1.61239 0.336625)
(-0.892857 0.917806 0.519403)
(-0.440923 1.26443 0.37453)
(-0.384065 1.08263 0.430684)
(-0.559768 1.78198 0.589868)
(-0.945131 0.819826 0.229612)
(-0.39536 0.933701 0.112666)
(-0.48138 1.09544 0.160674)
(-0.540143 1.537 0.187618)
(-0.993771 0.813337 0.105038)
(-0.404146 0.870461 0.0457329)
(-0.520072 1.1091 0.0621105)
(-0.56102 1.52262 0.0662088)
(-0.19608 0.308817 0.525403)
(-0.215462 0.419076 0.930733)
(-0.0677928 0.801001 0.349407)
(-0.141304 1.4605 1.0318)
(-0.564087 0.37093 0.602668)
(-0.597905 0.43392 0.903393)
(-0.228525 1.00438 0.423746)
(-0.428124 1.61586 1.06688)
(-0.721797 0.442414 0.666871)
(-0.787294 0.450338 0.804892)
(-0.377543 1.2352 0.532575)
(-0.652435 1.73132 1.01971)
(-0.486917 1.06083 0.665159)
(0.00449753 1.06776 0.715562)
(-0.609839 0.963563 0.568326)
(-0.80974 0.994096 0.566517)
(-0.472425 1.58331 0.60757)
(0.0218189 1.05747 0.718145)
(-0.259654 1.05323 0.744072)
(-0.569554 0.973137 0.804065)
(-0.952264 0.889729 0.866389)
(-0.754179 1.85188 1.22564)
(-0.468679 0.971489 0.586904)
(-0.594836 1.00593 0.512718)
(-0.556105 0.952961 0.488706)
(-0.511898 1.03524 0.560526)
(-0.819714 2.05763 0.844412)
(-0.178559 0.110758 1.08994)
(-0.139352 0.134817 0.983191)
(-0.105061 0.24753 1.25557)
(-0.101908 0.620203 1.22377)
(-0.493222 0.153413 0.996993)
(-0.390267 0.179434 0.931293)
(-0.317934 0.325938 1.23061)
(-0.295838 0.663642 1.19008)
(-0.602204 0.217791 0.856494)
(-0.467126 0.185224 0.844079)
(-0.415448 0.42399 1.14116)
(-0.362341 0.718421 1.13589)
(-0.209265 1.00589 0.533989)
(-0.277603 0.924675 0.432109)
(-0.456679 0.950345 0.572249)
(-0.483724 0.863544 0.520443)
(-0.629214 0.884433 0.665053)
(-0.561693 0.740209 0.631263)
(-0.722345 0.700079 0.752564)
(-0.601102 0.584852 0.752721)
(-0.553757 0.536327 1.02625)
(-0.46332 0.802376 1.08137)
(-0.382656 0.934843 0.492541)
(-0.364033 0.84669 0.449382)
(-0.519173 0.988844 0.529527)
(-0.354115 0.917314 0.556886)
(-0.497904 0.912327 0.588876)
(-0.310291 0.810655 0.676193)
(-0.456006 0.808422 0.685497)
(-0.270939 0.699907 0.818537)
(-0.575981 0.561686 0.890496)
(-0.35551 0.783723 1.08114)
(-0.437579 1.00516 0.425738)
(-0.141281 1.11098 0.334416)
(-0.392262 1.00996 0.27904)
(-0.38184 1.15098 0.340691)
(-0.525384 0.930843 0.520014)
(-0.634421 0.937213 0.602087)
(-0.584163 0.918056 0.347805)
(-0.807352 0.96026 0.530212)
(-0.32929 0.963874 0.258048)
(-0.3227 0.969915 0.321628)
(-0.401994 0.954278 0.401179)
(-0.0584488 0.936988 0.333798)
(-0.355456 1.00538 0.071174)
(-0.63411 1.16111 0.218101)
(-0.339318 1.00492 0.0231304)
(-0.688996 1.16502 0.0687441)
(-0.581065 0.896367 0.169099)
(-1.00562 0.980611 0.344239)
(-0.590731 0.892712 0.0491287)
(-1.07773 0.982845 0.108594)
(-0.288744 0.967288 0.0475894)
(-0.570921 0.967352 0.199088)
(-0.267871 0.970082 0.013092)
(-0.617591 0.969382 0.0618567)
(-0.409739 0.8507 0.266665)
(-0.272194 0.804164 0.264606)
(-0.5913 0.561373 0.309639)
(-0.209203 0.642787 0.201963)
(-0.397355 0.848701 0.435121)
(-0.00960072 0.787889 0.356117)
(-0.50492 0.555785 0.516832)
(0.0249016 0.658923 0.372017)
(-0.401824 0.859627 0.0747362)
(-0.430487 0.798561 0.141783)
(-0.622357 0.572508 0.153124)
(-0.273087 0.639508 0.0926601)
(-0.341018 0.863311 0.0729192)
(-0.514924 0.789982 0.0926786)
(-0.559616 0.59025 0.104258)
(-0.362105 0.637914 0.0781623)
(-0.100956 0.0810299 0.796291)
(-0.082346 0.0465031 0.489207)
(-0.0639422 0.0281177 0.157595)
(-0.0744631 0.0425202 0.894496)
(-0.0633779 0.0232099 0.52082)
(-0.0509167 0.0204627 0.171712)
(-0.289069 0.11547 0.764659)
(-0.205078 0.0548951 0.483603)
(-0.15476 0.0358337 0.166347)
(-0.199907 0.0795277 0.874296)
(-0.137487 0.0550591 0.519683)
(-0.104096 0.0410501 0.171433)
(-0.324586 0.120915 0.699918)
(-0.242963 0.0778035 0.444242)
(-0.207395 0.0683708 0.147606)
(-0.23601 0.135395 0.844159)
(-0.162175 0.0944414 0.517249)
(-0.139436 0.076548 0.173428)
(-0.218366 0.788082 0.308196)
(-0.160667 0.614008 0.18588)
(-0.144621 0.507543 0.0569394)
(-0.396558 0.756268 0.436544)
(-0.245976 0.60996 0.292623)
(-0.183316 0.513872 0.100128)
(-0.411701 0.564277 0.552672)
(-0.249646 0.453343 0.378817)
(-0.173948 0.391368 0.130434)
(-0.42693 0.417952 0.661391)
(-0.283552 0.303524 0.434182)
(-0.221669 0.251974 0.145208)
(-0.319477 0.209913 0.828766)
(-0.176926 0.126499 0.525241)
(-0.120322 0.0945762 0.182143)
(-0.562356 0.734456 0.349125)
(-0.413023 0.582791 0.21571)
(-0.309445 0.478905 0.0752268)
(-0.396293 0.795276 0.435687)
(-0.280507 0.619098 0.317888)
(-0.193499 0.504012 0.121456)
(-0.390679 0.624076 0.544974)
(-0.254556 0.448923 0.400541)
(-0.164008 0.355384 0.149294)
(-0.360449 0.430717 0.676853)
(-0.219118 0.282419 0.477037)
(-0.133877 0.220414 0.172792)
(-0.422094 0.220572 0.841039)
(-0.208933 0.12331 0.536856)
(-0.0945891 0.0860766 0.192604)
(-0.461647 1.15621 0.00999693)
(-0.612018 1.10326 0.0815806)
(-0.376375 1.28482 0.111973)
(-0.473135 1.12361 0.165162)
(-0.527567 1.33276 0.0995366)
(-0.754957 1.12825 0.110605)
(-0.482026 1.64675 0.245447)
(-0.67803 1.21342 0.229607)
(-0.000344023 0.860613 0.0231698)
(-0.0276408 0.837143 0.0362797)
(0.019635 0.857952 0.0246983)
(-0.00723002 0.767517 0.0376954)
(-0.123459 0.971744 0.01633)
(-0.131236 0.879209 0.0501577)
(-0.0582298 0.966884 0.0309072)
(-0.0341021 0.796506 0.0661871)
(-0.0444596 0.954383 0.115072)
(-0.110094 0.928698 0.0576628)
(-0.400992 0.876688 0.152261)
(-0.568695 0.917803 0.0903437)
(-0.263591 1.11629 0.077069)
(-0.160448 1.02525 0.130334)
(-0.447277 1.20193 0.130751)
(-0.445187 1.23159 0.00736194)
(-0.715532 1.33985 0.267109)
(-0.789263 1.39928 0.0422164)
(0.0160723 0.977753 -0.111069)
(0.170904 1.02599 -0.0148427)
(-0.328861 0.87746 0.049828)
(-0.306169 0.857903 0.0184645)
(-0.299271 1.03805 0.0197517)
(-0.228416 1.07246 0.00096445)
(-0.0412966 0.627393 0.345189)
(-0.0214185 0.327878 0.139237)
(-0.031371 0.594269 0.0924763)
(-0.0155388 0.363704 0.0512056)
(-0.0835481 0.641264 0.351384)
(-0.00861504 0.330512 0.143367)
(0.000940961 0.596436 0.11674)
(0.0225717 0.3609 0.064011)
(-0.370575 0.637655 0.348929)
(-0.0865021 0.331313 0.152367)
(-0.264058 0.601554 0.162863)
(-0.0685973 0.377091 0.0991269)
(-0.371299 0.590325 0.107295)
(-0.109187 0.394907 0.0666717)
(-0.443112 0.600054 0.0265439)
(-0.132497 0.389555 0.0276169)
(-0.400278 0.852865 0.522929)
(-0.493176 0.700899 0.453498)
(-0.365003 0.86643 0.237336)
(-0.478071 0.710727 0.240575)
(-0.657126 0.965547 0.606451)
(-0.660065 0.849337 0.55832)
(-0.622157 0.99742 0.291796)
(-0.620242 0.854018 0.287078)
(-0.23819 0.827345 0.191963)
(-0.35783 0.568711 0.192944)
(-0.276967 0.845495 0.417154)
(-0.357195 0.552773 0.335236)
(-0.383006 0.898909 0.128837)
(-0.458842 0.713512 0.135847)
(-0.41677 0.916373 0.0541352)
(-0.459154 0.706797 0.07076)
(-0.646801 1.03924 0.168158)
(-0.606708 0.855123 0.165331)
(-0.674203 1.04738 0.0746779)
(-0.605082 0.847072 0.0850978)
(-0.237431 0.830051 0.0986442)
(-0.344312 0.574566 0.110327)
(-0.253156 0.831811 0.03759)
(-0.346123 0.571008 0.0611056)
(0.0101326 0.517419 0.155167)
(-0.0323466 0.329405 0.0907196)
(-0.250734 0.43133 0.149307)
(-0.123729 0.27438 0.0866815)
(0.026154 0.471977 0.255206)
(-0.0190264 0.292242 0.123803)
(-0.232222 0.408782 0.231256)
(-0.108335 0.255201 0.124332)
(-0.00509949 0.535763 0.0803905)
(-0.0415191 0.350881 0.0592002)
(-0.254361 0.44075 0.0879252)
(-0.134598 0.282944 0.0513784)
(-0.0173759 0.538043 0.0282437)
(-0.0479309 0.362099 0.0273044)
(-0.251596 0.439073 0.0485959)
(-0.136417 0.283974 0.0250433)
(0.0232208 0.0945941 0.392726)
(0.0263033 0.0475814 0.235707)
(-0.00588672 0.172348 0.172527)
(0.00121578 0.0965486 0.15272)
(0.100159 0.0997165 0.394201)
(0.0969536 0.056729 0.248433)
(0.00833158 0.182286 0.172475)
(0.0172546 0.112353 0.152542)
(0.0195798 0.120843 0.419665)
(0.0642715 0.0838661 0.274189)
(-0.0480023 0.20027 0.17507)
(-0.0211277 0.142638 0.151584)
(0.384096 0.477947 0.574524)
(0.401689 0.778448 0.670615)
(0.19651 0.336748 0.483405)
(0.148016 0.318524 0.293504)
(0.0235499 0.228133 0.136379)
(0.433814 0.744906 0.633122)
(0.405641 0.491505 0.535066)
(0.145532 0.273459 0.452665)
(0.209626 0.273606 0.336408)
(0.03827 0.185456 0.174312)
(-0.447778 0.799071 0.589172)
(-0.333884 0.60265 0.489833)
(-0.267104 0.460872 0.358697)
(-0.221361 0.346839 0.246971)
(-0.105254 0.221343 0.124276)
(0.0229152 0.0239544 0.166125)
(0.0179921 0.0145847 0.123947)
(0.0032325 0.058693 0.136385)
(0.00207553 0.0425995 0.130461)
(0.0748653 0.0318368 0.182428)
(0.0617699 0.0181081 0.131131)
(0.0110825 0.0759353 0.142355)
(0.00715461 0.0569531 0.133893)
(0.0765956 0.0537504 0.210516)
(0.0793217 0.0337263 0.149709)
(-0.00745131 0.104345 0.151653)
(-0.00840509 0.0796532 0.141049)
(0.192038 0.727692 0.474464)
(0.0645956 0.650057 0.33963)
(0.280906 0.46293 0.398152)
(0.147523 0.401853 0.271506)
(0.110898 0.282075 0.280818)
(0.068441 0.251626 0.213272)
(0.12369 0.231732 0.230159)
(0.0916922 0.182564 0.177931)
(0.003655 0.153146 0.146561)
(-0.0147071 0.116497 0.147257)
(-0.165122 0.70016 0.396314)
(-0.100087 0.58891 0.345174)
(-0.0566162 0.513214 0.317766)
(0.0197612 0.406286 0.269806)
(-0.0404523 0.378818 0.242467)
(0.0171104 0.295125 0.207832)
(-0.0449247 0.277288 0.18365)
(-0.00275377 0.214321 0.165646)
(-0.0348941 0.188066 0.112611)
(-0.0338776 0.160279 0.139114)
(-0.20342 0.54531 0.282303)
(-0.172612 0.394567 0.192241)
(-0.377514 0.559237 0.182036)
(-0.220882 0.397651 0.115026)
(-0.333435 0.692479 0.401187)
(-0.309877 0.535364 0.307505)
(-0.499825 0.704366 0.269927)
(-0.387208 0.545846 0.221416)
(-0.268828 0.441149 0.133181)
(-0.148813 0.314544 0.0813822)
(-0.134272 0.42056 0.198887)
(-0.12145 0.305862 0.142147)
(-0.442968 0.565827 0.17194)
(-0.192516 0.398365 0.082572)
(-0.483385 0.563443 0.0506822)
(-0.214093 0.398655 0.0272826)
(-0.555805 0.708502 0.197637)
(-0.397069 0.565664 0.145078)
(-0.590309 0.704117 0.0555951)
(-0.42769 0.566486 0.0468533)
(-0.326536 0.453463 0.135372)
(-0.121947 0.314736 0.0590573)
(-0.362343 0.452536 0.0430667)
(-0.139879 0.31833 0.0204278)
(-0.178334 0.327142 0.0923114)
(-0.122215 0.238397 0.0775704)
(-0.0971363 0.221491 0.0621613)
(-0.134228 0.199065 0.083648)
(-0.109791 0.310481 0.133364)
(-0.109001 0.226778 0.113317)
(-0.0804526 0.210754 0.0805132)
(-0.123356 0.184688 0.105917)
(-0.20696 0.342972 0.0937106)
(-0.117851 0.245529 0.0538305)
(-0.109536 0.227658 0.0450637)
(-0.154235 0.210295 0.0569503)
(-0.254019 0.349953 0.0203231)
(-0.126901 0.245329 0.0079285)
(-0.147725 0.236078 -0.00590162)
(-0.157312 0.212786 0.00450718)
(0.0142813 0.0288069 0.0789963)
(0.0126512 0.0229749 0.0333336)
(0.013177 0.0176745 0.00975083)
(0.00150784 0.124494 0.0814469)
(0.00444168 0.0599306 0.0226677)
(0.00458819 0.0453464 0.00610341)
(0.0523585 0.028324 0.0863429)
(0.0470535 0.0256642 0.038617)
(0.0433611 0.0211602 0.0118039)
(0.00629974 0.139245 0.0849701)
(0.0129064 0.0727672 0.0248774)
(0.0120307 0.0570654 0.00700524)
(0.0715698 0.0419339 0.0941628)
(0.0662334 0.0423954 0.0447872)
(0.0612212 0.0400123 0.012355)
(-0.00656593 0.161448 0.0898717)
(0.0130221 0.094572 0.0275591)
(0.0158515 0.0774794 0.00698372)
(0.0231887 0.536943 0.221739)
(0.0190345 0.432047 0.124093)
(0.00826517 0.369383 0.0345056)
(0.0818977 0.33179 0.167742)
(0.0771446 0.273828 0.0876986)
(0.0663757 0.241748 0.0245632)
(0.0607585 0.217814 0.13537)
(0.0620123 0.182235 0.0682661)
(0.0573052 0.164703 0.0200191)
(0.0765081 0.165137 0.110035)
(0.0702269 0.136452 0.0526622)
(0.0629416 0.120664 0.0134095)
(-0.0204096 0.193584 0.0950457)
(0.0054366 0.121362 0.0291055)
(0.00718173 0.0998625 0.00578284)
(-0.140876 0.472783 0.261945)
(-0.0778163 0.367645 0.14296)
(-0.0424295 0.304835 0.0443695)
(0.00499281 0.314349 0.200343)
(0.0302244 0.242916 0.103292)
(0.0419021 0.204707 0.0310117)
(0.00872013 0.232038 0.154608)
(0.0357788 0.177996 0.0778721)
(0.0455119 0.150736 0.0234911)
(0.00360589 0.196437 0.120934)
(0.0295246 0.146505 0.0547388)
(0.0354884 0.120691 0.015002)
(-0.0394855 0.244615 0.103789)
(0.00665507 0.139253 0.0282954)
(0.01159 0.111427 0.00735416)
(0.000249066 0.164268 0.0472694)
(0.000299672 0.0847305 0.0150911)
(0.000276588 0.0443751 0.00379685)
(0.000430777 0.022745 -0.000491707)
(0.00589841 0.184672 0.0196104)
(0.00242765 0.09218 0.00645768)
(0.00154148 0.0469512 0.00184984)
(0.00104993 0.0235799 0.000129073)
(-0.000816818 0.165133 0.0492222)
(0.000272823 0.0848095 0.0160112)
(0.00173737 0.0445112 0.00447431)
(0.00207565 0.0228342 0.000159541)
(0.00873057 0.188383 0.0238898)
(0.00389913 0.094209 0.00822255)
(0.00396338 0.0483811 0.00346748)
(0.00299705 0.0243765 0.00138157)
(-0.00705787 0.165125 0.0515307)
(-0.00125073 0.0842779 0.0170657)
(0.00255851 0.0457203 0.00585412)
(0.0040022 0.0237535 0.00140245)
(0.00038285 0.19243 0.037485)
(0.00175163 0.0955363 0.0137874)
(0.00248262 0.0507963 0.00379429)
(0.00225837 0.0258851 0.000591526)
(-0.00236054 0.206535 0.0237457)
(0.000599139 0.100686 0.0101127)
(0.000537616 0.0502589 0.0012521)
(0.000492727 0.024993 -0.0010058)
(-0.00738017 0.210784 0.016188)
(-0.00156371 0.103648 0.00836906)
(0.000848587 0.0506821 0.00296315)
(0.0013754 0.0250797 0.0011057)
(-0.0256239 0.174984 0.0386651)
(-0.00659581 0.0897811 0.013984)
(-0.00132245 0.0482191 0.00323565)
(0.00104004 0.0246744 -0.00136426)
(-0.0356818 0.146616 0.0311892)
(-0.00896763 0.0798404 0.0109919)
(-0.00298272 0.0445458 0.0039865)
(0.00252858 0.0232385 -0.000855675)
(-0.0173516 0.154676 0.0485377)
(-0.00379162 0.0817085 0.0162051)
(0.000461999 0.0455584 0.0050724)
(0.00292661 0.0238931 8.55723e-05)
(-0.0290919 0.13622 0.0416964)
(-0.00698562 0.0755712 0.0137494)
(-0.00307261 0.042945 0.00501469)
(0.00189356 0.0226327 -0.00133862)
(-0.0272361 0.188204 0.027217)
(-0.00726867 0.0955907 0.0108648)
(-0.000524201 0.0496376 0.00288908)
(0.00210259 0.0249669 -0.000546465)
(-0.0398605 0.152609 0.0213016)
(-0.0103675 0.0827787 0.00821022)
(-0.00319541 0.0453937 0.00339425)
(0.00318318 0.0235952 0.000195372)
(-0.0291493 0.194795 0.0153856)
(-0.00827715 0.0991422 0.00721403)
(-0.000314413 0.0506645 0.00288454)
(0.00285675 0.025479 0.00120468)
(-0.04236 0.154895 0.0114779)
(-0.0113866 0.0846714 0.00528122)
(-0.0035402 0.0462267 0.00263931)
(0.00326512 0.0241343 0.0010922)
(0.000151182 0.124554 0.0584621)
(0.00015926 0.0726209 0.0183341)
(0.000295226 0.0407229 0.00461884)
(0.000606089 0.0216729 -0.00143504)
(0.00119301 0.0861605 0.054389)
(0.000526002 0.058961 0.0166602)
(8.49592e-05 0.0363045 0.00604827)
(0.000524682 0.0201298 -0.00179369)
(0.00179586 0.12518 0.0579656)
(0.000882162 0.0725014 0.0182681)
(0.00129205 0.040845 0.00471784)
(0.00184964 0.0217351 -0.00140393)
(0.00479863 0.0897379 0.0527656)
(0.00193322 0.0599305 0.0161081)
(0.000518644 0.0366197 0.00602462)
(0.001495 0.0202739 -0.001798)
(-0.0100298 0.128761 0.0562513)
(-0.00245733 0.0729115 0.017834)
(0.000587373 0.0416993 0.00578668)
(0.00279832 0.0222708 -0.000397114)
(-0.00369939 0.100054 0.0495875)
(-0.000299885 0.06285 0.0150733)
(8.98111e-05 0.0377239 0.00652555)
(0.00251259 0.0207629 -0.00109074)
(-0.00153647 0.128358 0.0483157)
(0.00114196 0.0717761 0.0157444)
(0.00194696 0.0415337 0.00649325)
(0.00317731 0.0228685 0.00158591)
(0.000563535 0.109321 0.0540546)
(0.00128318 0.0651226 0.0164178)
(-4.45493e-05 0.0393246 0.0082925)
(0.0024851 0.0212399 -0.00109712)
(-0.0244549 0.122179 0.0414399)
(-0.00556207 0.0704037 0.0133898)
(-0.00238046 0.0410617 0.00594258)
(0.00324017 0.0222815 0.000263934)
(0.00216981 0.0535319 0.0399578)
(0.000860935 0.0486655 0.0114115)
(0.00035497 0.0293953 0.00491285)
(0.000493451 0.00868103 -0.000754433)
(0.00376706 0.0236609 0.0152065)
(0.00134633 0.0433531 0.00408095)
(0.000508752 0.0268577 0.00139137)
(0.000290212 0.00848489 0.000104679)
(0.00465032 0.059674 0.0420209)
(0.00200192 0.0507354 0.0121171)
(0.000568157 0.0302402 0.0051323)
(0.0011561 0.00914502 -0.0006745)
(0.00983078 0.0299535 0.0161753)
(0.00358851 0.045541 0.00439879)
(0.00121401 0.0275627 0.00158191)
(0.000712243 0.00869713 0.000239431)
(0.00334121 0.0718406 0.0439405)
(0.00205842 0.0545244 0.0128401)
(0.000575859 0.0313634 0.00567932)
(0.00180119 0.00918827 -0.000408438)
(0.0130302 0.0414909 0.0170507)
(0.00503142 0.0493865 0.00473974)
(0.00177321 0.0285504 0.0017765)
(0.0010723 0.00884985 0.000376497)
(-0.000827662 0.0877087 0.0401949)
(0.00159182 0.0592938 0.0119111)
(0.000585587 0.033385 0.00603286)
(0.00250943 0.00999934 -6.17592e-05)
(0.0113752 0.0553707 0.017004)
(0.00534082 0.053955 0.0048245)
(0.00196283 0.0300754 0.00215624)
(0.00126769 0.00929681 0.00060484)
(-0.011231 0.100089 0.0367139)
(-0.00066409 0.0639884 0.0113371)
(-0.00105529 0.0359294 0.00585393)
(0.00195187 0.0114535 0.000397686)
(0.00514816 0.0628868 0.0155239)
(0.00434897 0.0579154 0.00485001)
(0.00146341 0.0315398 0.0025537)
(0.00113741 0.00970473 0.000857343)
(-0.0274521 0.109438 0.0229892)
(-0.00444529 0.0694747 0.00750135)
(-0.00207175 0.037027 0.00294457)
(0.00197639 0.011157 9.99429e-05)
(-0.00821072 0.0637147 0.0131081)
(9.19559e-05 0.0630741 0.00496127)
(0.00024837 0.0342559 0.00219242)
(0.000699609 0.010432 0.00088998)
(-0.020432 0.105817 0.0283983)
(-0.0022949 0.0671572 0.00870886)
(-0.00169707 0.0363228 0.00397632)
(0.00180841 0.0111043 0.000152272)
(-0.00350053 0.0603908 0.0143569)
(0.00198052 0.0607969 0.00498312)
(0.000867941 0.0329034 0.00244257)
(0.000953068 0.0100282 0.000916826)
(-0.033153 0.111204 0.0164935)
(-0.00647696 0.0709283 0.00598793)
(-0.00258055 0.0370981 0.00234663)
(0.00213525 0.0105462 0.000294298)
(-0.0118219 0.0643726 0.0100429)
(-0.0014171 0.0647476 0.00423985)
(-0.000152808 0.034906 0.00179551)
(0.00056109 0.0104901 0.000829026)
(-0.03682 0.113335 0.0091217)
(-0.00807151 0.0721828 0.00410069)
(-0.00308278 0.0377596 0.0020112)
(0.00199529 0.0106796 0.00084962)
(-0.0144792 0.0672646 0.00636771)
(-0.00264048 0.0660997 0.00322213)
(-0.000547384 0.0356151 0.00157121)
(0.00041299 0.0106796 0.000856691)
(0.000196533 0.0124052 1.4148e-05)
(6.65379e-05 0.00669664 3.79298e-05)
(2.35633e-05 0.00335999 2.0303e-05)
(8.92525e-06 0.00151056 8.94341e-06)
(4.2584e-06 0.000426267 4.52707e-06)
(0.000268298 0.0124099 3.3386e-05)
(9.75839e-05 0.00670378 2.31969e-05)
(3.65351e-05 0.0033665 1.11806e-05)
(1.42704e-05 0.00151372 4.81587e-06)
(6.91867e-06 0.000427134 2.42378e-06)
(0.000469213 0.0125778 0.000150588)
(0.000151482 0.00677883 8.81362e-05)
(5.32001e-05 0.0033898 3.97917e-05)
(2.01575e-05 0.00152103 1.67624e-05)
(9.63354e-06 0.000428849 8.38359e-06)
(0.000568005 0.0127017 0.000185837)
(0.000208134 0.00680756 8.08842e-05)
(7.85907e-05 0.00340463 3.39486e-05)
(3.09052e-05 0.00152746 1.40061e-05)
(1.50574e-05 0.000430565 6.96636e-06)
(0.000614384 0.0129893 0.000268202)
(0.000186945 0.00688853 0.000141094)
(6.48395e-05 0.00342625 6.18894e-05)
(2.45497e-05 0.00153372 2.59074e-05)
(1.17499e-05 0.00043198 1.29696e-05)
(0.000724834 0.0131075 0.000535809)
(0.000267672 0.00691836 0.00024825)
(0.00010151 0.00344619 0.000104135)
(4.00939e-05 0.00154276 4.30184e-05)
(1.9602e-05 0.000434427 2.14767e-05)
(0.00034188 0.0131669 0.000535806)
(0.000128276 0.00703119 0.000263989)
(4.90059e-05 0.00349777 0.000113654)
(1.95202e-05 0.00156302 4.77492e-05)
(9.6168e-06 0.000439662 2.41282e-05)
(0.000252298 0.0134107 0.000731601)
(7.74253e-05 0.0071731 0.000327249)
(2.68897e-05 0.00356303 0.000137935)
(1.02971e-05 0.0015893 5.79527e-05)
(4.9981e-06 0.000446549 2.94576e-05)
(0.000557741 0.0133849 0.000305997)
(0.000180468 0.00701577 0.0001845)
(6.41653e-05 0.0034759 8.23856e-05)
(2.46366e-05 0.00155227 3.48244e-05)
(1.18959e-05 0.000436691 1.75699e-05)
(0.000262014 0.0140189 0.000321098)
(7.49155e-05 0.0071395 0.000171845)
(2.5307e-05 0.00350819 7.49593e-05)
(9.52316e-06 0.00156211 3.15175e-05)
(4.56329e-06 0.000438999 1.58904e-05)
(0.000632409 0.0134203 0.000268086)
(0.000211822 0.00697541 0.000157285)
(7.7763e-05 0.00345256 6.92015e-05)
(3.03083e-05 0.00154245 2.89578e-05)
(1.47204e-05 0.000434101 1.45069e-05)
(0.00026164 0.0139873 0.000428692)
(7.68807e-05 0.00708714 0.000194872)
(2.65101e-05 0.00348318 7.96497e-05)
(1.00477e-05 0.0015522 3.25012e-05)
(4.8189e-06 0.000436434 1.61304e-05)
(0.000419354 0.0134599 0.000347232)
(0.000117328 0.00711188 0.000203464)
(3.89577e-05 0.00352095 9.16919e-05)
(1.45502e-05 0.00157018 3.91826e-05)
(6.9582e-06 0.000441342 1.99487e-05)
(0.000246313 0.014267 0.000403006)
(6.47219e-05 0.00723126 0.000194726)
(2.13127e-05 0.00354801 8.4058e-05)
(7.98762e-06 0.00157787 3.54897e-05)
(3.83581e-06 0.000443101 1.80052e-05)
(0.00038549 0.0137751 0.000575965)
(8.30844e-05 0.00725188 0.000259686)
(2.27682e-05 0.00358193 0.000110032)
(7.64607e-06 0.00159448 4.63939e-05)
(3.47306e-06 0.000447697 2.36402e-05)
(0.000212248 0.0145969 0.000483335)
(4.01924e-05 0.00735664 0.000213329)
(1.01965e-05 0.00360015 9.02074e-05)
(3.29734e-06 0.00159852 3.8084e-05)
(1.47365e-06 0.000448509 1.94314e-05)
(0.000168267 0.0125591 -6.40831e-05)
(5.30473e-05 0.00670703 2.33457e-05)
(1.82183e-05 0.00335576 1.52684e-05)
(6.78653e-06 0.00150781 6.91857e-06)
(3.20666e-06 0.000425475 3.5213e-06)
(0.000133675 0.0129241 -4.64253e-05)
(4.39183e-05 0.00672773 7.9092e-06)
(1.54304e-05 0.00335397 5.8581e-06)
(5.79225e-06 0.00150615 2.67374e-06)
(2.7405e-06 0.000424989 1.35996e-06)
(0.000424783 0.0127329 2.50847e-05)
(0.000131161 0.00677337 5.63614e-05)
(4.54494e-05 0.00337893 2.77245e-05)
(1.70984e-05 0.00151576 1.18335e-05)
(8.12958e-06 0.000427413 5.92348e-06)
(0.000352633 0.0130766 -1.3469e-05)
(0.000113576 0.00678047 2.02519e-05)
(4.01483e-05 0.00337229 1.04522e-05)
(1.51959e-05 0.00151242 4.46995e-06)
(7.23094e-06 0.000426509 2.23323e-06)
(0.000571759 0.0131036 0.000120277)
(0.00015988 0.00688203 8.8684e-05)
(5.37066e-05 0.00341406 3.99812e-05)
(2.00257e-05 0.00152777 1.67499e-05)
(9.50213e-06 0.000430353 8.36215e-06)
(0.000473696 0.0134118 0.00011672)
(0.000151739 0.00687673 6.12406e-05)
(5.43381e-05 0.00340403 2.52578e-05)
(2.08081e-05 0.0015233 1.02246e-05)
(9.98013e-06 0.00042917 5.02776e-06)
(0.000524028 0.0135885 0.000356343)
(0.000170653 0.00699379 0.000167041)
(6.24995e-05 0.00344784 6.86699e-05)
(2.4314e-05 0.00153917 2.7952e-05)
(1.17851e-05 0.000433144 1.38233e-05)
(0.00032781 0.0138028 0.000250265)
(0.000112112 0.0069779 0.000110361)
(4.14007e-05 0.00343847 4.38959e-05)
(1.61006e-05 0.00153542 1.76005e-05)
(7.78588e-06 0.000432174 8.63735e-06)
(0.000263056 0.014016 0.000570144)
(9.06585e-05 0.00705087 0.000221363)
(3.40419e-05 0.0034665 8.62068e-05)
(1.33952e-05 0.00154575 3.44351e-05)
(6.53261e-06 0.000434779 1.69065e-05)
(-0.00305478 0.625042 0.113818)
(-0.0125083 0.977896 0.2593)
(0.000243372 0.640774 0.119263)
(-0.0283175 0.977541 0.258998)
(0.0170227 0.659729 0.134943)
(-0.0310362 0.970392 0.259089)
(0.0524962 0.659674 0.158029)
(-0.0128959 0.950787 0.266944)
(0.0834398 0.607992 0.15973)
(0.0387665 0.883503 0.268875)
(-0.0126429 0.532686 0.0668322)
(-0.0422551 0.606665 0.0955907)
(0.0578991 0.543157 0.106603)
(0.0518094 0.655005 0.160638)
(-0.0459863 0.530798 0.0357069)
(-0.0840144 0.592437 0.0474704)
(-0.0668129 0.538773 0.0100853)
(-0.101576 0.596304 0.0138223)
(-0.0390709 0.566207 0.585143)
(-0.00945494 0.0981702 0.142373)
(-0.00220939 0.0213715 0.0334367)
(-0.000510068 0.00490151 0.00773009)
(-0.000136784 0.000885708 0.00203433)
(-0.0093297 0.631593 0.161316)
(-0.00545601 0.182077 0.0441292)
(-0.000759776 0.0449614 0.0119586)
(-0.000223769 0.0104182 0.00280618)
(-0.000106914 0.00188115 0.000649872)
(-0.119892 0.563591 0.573086)
(-0.0288357 0.0962334 0.138565)
(-0.00676258 0.0208517 0.0325622)
(-0.00155434 0.00477348 0.00747769)
(-0.000417716 0.000861341 0.00198496)
(-0.0211419 0.626951 0.16458)
(-0.00673602 0.179132 0.0490626)
(-0.00182408 0.0441757 0.0123439)
(-0.000416249 0.010207 0.0029595)
(-0.000125934 0.00183002 0.000774841)
(-0.199474 0.553828 0.537978)
(-0.048086 0.0936829 0.129593)
(-0.0113223 0.0202155 0.0304276)
(-0.0026152 0.00462405 0.00699665)
(-0.000702692 0.000834599 0.00186428)
(-0.035723 0.614674 0.159633)
(-0.011945 0.1747 0.0472736)
(-0.00316387 0.0430218 0.0118595)
(-0.000797633 0.00993573 0.00283015)
(-0.00022096 0.00178275 0.000744085)
(-0.263378 0.530886 0.48157)
(-0.0637443 0.0882728 0.115456)
(-0.015104 0.0189717 0.027127)
(-0.0035085 0.00434741 0.00625427)
(-0.000946922 0.000786564 0.00167326)
(-0.0424001 0.589075 0.153513)
(-0.0152748 0.166745 0.0445346)
(-0.00415474 0.0410889 0.0110452)
(-0.00105443 0.00950889 0.00261637)
(-0.000290803 0.00170909 0.000685348)
(-0.322805 0.486358 0.392977)
(-0.0790184 0.0790274 0.0941317)
(-0.0189027 0.017028 0.0222163)
(-0.00442707 0.00393213 0.0051495)
(-0.00120469 0.00071552 0.0013858)
(-0.0484475 0.541476 0.142281)
(-0.0190142 0.154139 0.0402982)
(-0.00528335 0.0382481 0.00991439)
(-0.00135152 0.00890841 0.0023399)
(-0.000376406 0.00160797 0.00061284)
(-0.36997 0.409684 0.178164)
(-0.093589 0.0695291 0.0448668)
(-0.0228096 0.0155764 0.0108399)
(-0.00542016 0.00368264 0.00254891)
(-0.00149309 0.000679146 0.000693016)
(-0.0861692 0.41928 0.0684324)
(-0.0279744 0.126458 0.0197029)
(-0.00729931 0.0324748 0.00482216)
(-0.00178822 0.00774985 0.0011214)
(-0.000490487 0.0014211 0.00029375)
(-0.349211 0.433891 0.270564)
(-0.0879911 0.0723372 0.0670281)
(-0.0213061 0.0159732 0.0160233)
(-0.00502778 0.00374148 0.00373744)
(-0.0013757 0.000686101 0.00101056)
(-0.0621491 0.457107 0.101228)
(-0.0229311 0.13722 0.0287585)
(-0.00623995 0.034804 0.00708763)
(-0.00156852 0.00820911 0.00167409)
(-0.000432051 0.00149284 0.00044212)
(-0.378341 0.399088 0.103133)
(-0.0958552 0.0684416 0.0262145)
(-0.0234379 0.0154237 0.00637529)
(-0.00558922 0.0036616 0.00150967)
(-0.00154583 0.000676944 0.000412393)
(-0.100554 0.404182 0.0380993)
(-0.0311973 0.12123 0.0113816)
(-0.00798229 0.0312171 0.00277471)
(-0.00192324 0.00749147 0.000644876)
(-0.000525216 0.00138056 0.000170345)
(-0.393023 0.395875 0.0349621)
(-0.0987575 0.0676308 0.00886147)
(-0.0241957 0.0152372 0.00216326)
(-0.0057733 0.00362164 0.000514569)
(-0.00159796 0.000669499 0.000140826)
(-0.105748 0.401979 0.0140715)
(-0.0327617 0.119748 0.00390391)
(-0.00843133 0.0307809 0.000892533)
(-0.00189486 0.00741134 0.000254946)
(-0.00054443 0.00136512 5.34209e-05)
(-0.0297885 1.49885 -0.0382138)
(-0.335454 2.19582 -0.0089871)
(-0.306431 2.13194 0.199268)
(-0.109514 1.442 -0.0583941)
(0.0711706 0.812543 0.0324241)
(0.120438 0.861685 0.0347339)
(0.332522 1.20575 0.100544)
(0.491251 1.27546 0.129685)
(0.0615759 0.969521 0.082116)
(0.353887 1.10421 0.155876)
(-0.105339 1.57436 0.136632)
(0.0836129 2.19234 0.21128)
(0.0941824 2.00507 0.170437)
(0.207601 2.69837 0.211105)