/*--------------------------------*- C++ -*----------------------------------*\
| =========                 |                                                 |
| \\      /  F ield         | OpenFOAM: The Open Source CFD Toolbox           |
|  \\    /   O peration     | Version:  2306                                  |
|   \\  /    A nd           | Website:  www.openfoam.com                      |
|    \\/     M anipulation  |                                                 |
\*---------------------------------------------------------------------------*/
FoamFile
{
    version     2.0;
    format      ascii;
    arch        "LSB;label=32;scalar=64";
    class       volScalarField;
    location    "0.8";
    object      gradTx;
}
// * * * * * * * * * * * * * * * * * * * * * * * * * * * * * * * * * * * * * //

dimensions      [0 -1 0 1 0 0 0];

internalField   nonuniform List<scalar> 
5712
(
-8061.05
-10313.7
-18858.3
-27786.3
-28476
-48975.8
-21622.2
-54749.2
-17410.9
-38188.8
-26032.4
-39737.6
-23171.4
-30709.7
-10253.9
-11813.9
-18600.3
-21366.9
-23609.2
-23474.2
-18347.5
-22399.9
-26812.6
-23971.5
-6747.68
-5263.75
-8360.66
-5797.55
-15773.4
-12991.5
-26626.7
-19731.6
-20525.4
-21487.7
-23329.6
-22899.3
-8747.49
-6579.78
-47699.5
-63902.3
-31104.9
-38128.6
-63001.6
-81992.2
-32783.1
-37582
-35940.9
-50780
-31745.4
-41888.2
-18866.7
-30125.7
-3805.56
-1302.84
-3972.78
-1451.4
-11435.5
-4684.17
-15448.5
-5777.62
-11376.1
-4324.61
-11632.8
-3782.75
-19566.2
-6307.72
-25220.1
-8618.26
-28765.1
-14653.1
-26458.2
-15668.2
-26250
-17001.5
-23250.5
-17077.4
-21513.3
-12947.7
-21622.9
-11407.4
-27422.1
-17218
-27561.5
-17313.8
-24676.8
-17925.6
-25010.7
-17913.6
-23213.8
-14706.5
-24060.2
-15025
-22312.8
-10009.7
-10767.6
-13550.9
-22321.4
-11023.1
-9601.62
-13994.2
-23628.3
-9884
-12034.5
-13503.6
-24844.3
-10103.6
-13001.8
-14025.5
-4902.01
-5386.56
-1694.82
-3532.61
-14102.2
-14947.6
-5713.12
-10703.1
-18044.9
-19682.3
-9438.58
-16310.9
-12172.9
112.438
-15246
-20243.5
-11810.6
545.474
-6491.36
-14238.8
-23806.6
-18854.5
-11717
-14870.9
-13902.6
-12797.4
-20492.9
-4463.97
-3483.8
-2626.51
-2547.69
-12330.5
-9756.67
-7948.34
-7395.95
-15055.1
-11678.1
-10386.2
-9058.53
-5231.64
-6940.06
-11417
-12093.1
-15730.3
-14042.3
-18058.6
-15027.5
-13843.9
-11583
-9566.4
-9100.84
-12979.3
-8852.88
-12447.6
-7757.28
-11400.1
-6773.47
-14399.5
-8887.75
-10939.5
-3532.02
-9806.55
-9546.01
-13134.6
-15860.5
-14604.1
-20183.8
-8232.25
-8067.5
-10049.9
-1461.22
-8886.39
-15852.7
-8482.95
-17224.9
-14526.6
-25140.6
-14768.3
-26943.1
-7218.61
-14273
-6696.78
-15439.8
-10243.5
-6804.85
-14782.5
-5230.08
-9933.87
-240.018
-12623
622.541
-10045.6
-10762.2
-15558.9
-6827.18
-8525.46
-12873.1
-13990.4
-9052.63
-2523.9
-2058.65
-1598.55
-1861.58
-1584.45
-1272.92
-7226.73
-5126.96
-3869
-4997.66
-3437.17
-2602.39
-8114.66
-6074.06
-5184.87
-5900.24
-4054.37
-3485.9
-5459.16
-4016.68
-3615.53
-9913.94
-6149.39
-4582.9
-10292.5
-6241.14
-4348.69
-10673.2
-7088.8
-5541.72
-7986.92
-4423.16
-3008.06
-14058.9
-10325.6
-7736.12
-9907.33
-7012.68
-4837.48
-9766.98
-6363.91
-4100.2
-9011.22
-5477.94
-3346.92
-10552.4
-5223.33
-2364.73
-11541.2
-15300.4
-9409.37
-11828.4
-13189.2
-18873.9
-12050.7
-16950.7
-8.60057
-691.019
490.874
-180.751
-3086.48
-3280.9
-1455.75
-852.553
-1111.49
-2752.36
-10024.8
-14217.4
-6589.79
-4011.21
-11181.9
-11129.7
-17888.3
-19731.6
401.807
4272.59
-8221.53
-7654.24
-7481.77
-5710.41
-1032.42
-535.463
-784.275
-388.469
-2088.7
-215.376
23.524
564.292
-9264.37
-2162.55
-6601.46
-1714.93
-9282.48
-2729.66
-11077.8
-3312.42
-10006.9
-12329.4
-9125.07
-11951.8
-16428.2
-16501.6
-15553.9
-15506.1
-5954.74
-8945.74
-6924.17
-8929.88
-9575.15
-11471
-10419.2
-11478.8
-16170
-15167.7
-16855.1
-15127
-5935.78
-8607.8
-6328.91
-8653.07
253.314
-808.665
-6268.34
-3093.22
653.85
-475.661
-5805.56
-2708.36
-127.487
-1037.98
-6359.02
-3364.96
-434.397
-1198.27
-6289.91
-3410.43
580.519
657.583
-147.168
30.3945
2503.99
2423.84
208.289
431.365
489.496
1606.79
-1200.06
-528.192
9602.39
10042.2
4912.75
3700.4
588.748
10845.3
10141
3638.3
5240.65
956.751
-11194.4
-8347.11
-6677.6
-5534.02
-2631.34
572.879
449.802
80.8125
51.8883
1871.63
1544.25
277.062
178.865
1914.89
1983.04
-186.283
-210.127
4800.95
1614.89
7022.64
3688.08
2772.45
1711.03
3092.26
2292.31
91.375
-367.677
-4128.05
-2502.17
-1415.41
494.029
-1011.31
427.76
-1123.12
-68.8444
-872.352
-846.939
-5085.5
-4315.3
-9437.85
-5522.04
-8335.87
-7746.92
-12495.6
-9680.19
-6720.69
-3720.32
-3356.79
-3036.25
-11074.2
-4812.9
-12084.6
-5352.34
-13895.1
-9926.73
-14757.7
-10692.3
-8163.4
-3048.69
-9058.57
-3496.97
-4458.34
-3055.39
-2428.41
-3355.7
-2744.77
-2725.02
-2011.31
-3083.91
-5174.01
-2946.26
-2738.41
-3855.86
-6350.47
-3172.53
-3693.13
-3932.81
357.032
316.28
329.426
37.696
111.042
114.705
1308.96
1176.34
1084.03
157.493
322.659
300.767
1789.25
1655.84
1530.53
-164.148
325.553
396.287
579.718
475.864
206.629
2047.44
1928.61
1659.39
1518.96
1550.31
1432.63
1912.7
1755.67
1573.54
-510.241
135.915
179.543
-3521.89
-1945.41
-1060.74
124.82
755.61
1047.55
218.003
894.47
1137.8
90.1473
738.116
887.211
-987.139
166.377
289.75
6.22664
7.4918
6.91471
10.7694
147.46
60.6912
38.5369
26.2482
-20.4205
6.82059
43.4343
51.8912
218.264
97.4781
99.0844
74.9262
-176.447
-31.2684
63.9627
100.055
9.57125
43.7909
62.0656
56.4592
-59.0136
14.9785
13.4404
12.3182
-184.504
-39.0927
21.2147
34.385
-640.599
-164.895
-33.0612
26.0009
-892.046
-224.191
-74.5679
63.2145
-433.791
-94.7905
11.55
73.1652
-727.298
-174.641
-76.8152
47.339
-680.902
-181.717
-13.105
52.5649
-996.512
-259.189
-79.8853
79.5795
-728.732
-206.929
-7.86032
71.4189
-1059
-284.666
-88.5051
81.6281
3.77955
3.9815
7.38066
15.1522
29.8251
13.15
2.12398
13.117
44.8965
22.054
32.3011
46.2411
119.966
48.3305
12.9661
37.3751
-250.744
-61.4332
14.6843
69.958
-92.4846
-7.49713
2.24528
62.8148
-38.4119
28.549
48.674
79.4328
14.0884
32.0796
-1.11373
62.1275
-611.372
-139.052
-59.5114
81.0043
54.2454
21.5234
8.87424
12.3363
94.1766
33.6582
12.7188
7.2553
116.258
50.0481
14.2039
28.9024
245.769
89.7128
30.3503
17.8061
83.5302
51.4604
14.3965
45.0297
325.754
125.786
44.3303
26.8074
-20.6915
39.7955
14.6397
62.7358
284.379
133.52
49.0708
31.6924
-280.774
-16.6023
-26.3823
48.7966
128.704
108.724
36.5853
28.4353
-686.303
-111.132
-51.7936
49.4098
-205.268
2.2989
6.20924
17.4902
-510.799
-57.3725
-42.4267
45.2104
-87.5133
49.5131
21.6985
23.8267
-828.826
-161.924
-64.5136
53.3813
-295.546
-35.4276
-3.82019
14.0273
-920.501
-201.788
-77.0696
49.8823
-361.979
-66.0121
-13.6846
10.3248
4.91332
1.66345
0.589083
0.223131
0.10646
6.70746
2.4396
0.913378
0.356759
0.172967
11.7303
3.78705
1.33
0.503938
0.240838
14.2001
5.20335
1.96477
0.77263
0.376434
15.3596
4.67363
1.62099
0.613742
0.293749
18.1209
6.6918
2.53774
1.00235
0.49005
8.54701
3.2069
1.22515
0.488006
0.24042
6.30746
1.93563
0.672242
0.257426
0.124953
13.9435
4.51169
1.60413
0.615915
0.297397
6.55034
1.87289
0.632675
0.238079
0.114082
15.8102
5.29554
1.94408
0.757708
0.368011
6.54101
1.92202
0.662752
0.251192
0.120473
10.4838
2.9332
0.973942
0.363755
0.173955
6.15783
1.61805
0.532817
0.19969
0.0958953
9.63725
2.07711
0.569204
0.191152
0.0868265
5.30621
1.00481
0.254911
0.0824336
0.0368412
4.20667
1.32618
0.455457
0.169663
0.0801666
3.34186
1.09796
0.385761
0.144806
0.0685126
10.6196
3.27903
1.13624
0.427459
0.20324
8.81583
2.8394
1.00371
0.379897
0.180774
14.294
3.99699
1.34267
0.500642
0.237553
11.8424
3.79348
1.35845
0.520202
0.249503
13.1007
4.26634
1.56249
0.60785
0.294627
8.19524
2.80281
1.03502
0.402515
0.194647
6.57641
2.26646
0.851048
0.33488
0.163315
-76.3695
-312.708
6.0843
-707.937
425.568
-775.905
1312.4
-322.399
2086
969.163
-316.073
-1056.38
1447.48
1295.23
-1149.66
-2100.36
-1670.32
-2539.39
-976.772
-236.374
-55.2346
-12.7517
-3.41959
-233.243
-136.4
-18.9944
-5.59422
-2.67284
-2997.31
-720.892
-169.064
-38.8586
-10.4429
-528.547
-168.401
-45.602
-10.4062
-3.14834
-4986.84
-1202.15
-283.059
-65.38
-17.5673
-893.075
-298.625
-79.0968
-19.9408
-5.52401
-6584.45
-1593.61
-377.6
-87.7125
-23.6731
-1060
-381.869
-103.868
-26.3606
-7.27008
-8070.13
-1975.46
-472.569
-110.677
-30.1172
-1211.19
-475.354
-132.084
-33.788
-9.41014
-9249.25
-2339.73
-570.24
-135.504
-37.3272
-2154.23
-699.359
-182.483
-44.7054
-12.2622
-8730.26
-2199.78
-532.653
-125.695
-34.3926
-1553.73
-573.278
-155.999
-39.2129
-10.8013
-9458.52
-2396.38
-585.948
-139.731
-38.6459
-2513.85
-779.933
-199.557
-48.081
-13.1304
-9825.57
-2468.94
-604.892
-144.332
-39.9489
-2643.71
-819.042
-210.783
-47.3715
-13.6108
-744.712
-8386.36
-7660.78
-2737.86
1779.26
3010.94
8313.05
12281.3
1539.4
8847.17
-2633.47
2090.32
2354.56
5190.02
10264.9
14767.1
15567.3
19727.1
6362.07
8287.91
-19720.6
-13719.2
-2801.37
-1745.01
-1203.29
-1585.73
-1794.56
-11478.3
-9382.17
-8410.23
-7890.88
-5678.46
-4187.96
-6072.34
-3333.56
-2814.6
-3172.13
-2163.64
-18852.9
-8649.96
-2337.69
-4216.05
-6643.84
-4286.83
-4273.53
-2992.51
-1536.95
-2108.75
-2591.49
-2862.02
-19211
-11923.5
-11076.6
-7592.42
-6915.33
-7852.64
-2514.31
-2969.61
-4571.17
-12947.4
-10148.3
-7472.26
-5782.93
-4071.87
-8525.91
-5541.07
-3871.82
-2562.5
-1127.1
-2403.48
-1924.11
-1388.62
-837.896
-281.193
-1524.58
-1242.26
-908.479
-551.394
-184.818
-1046.37
-847.284
-615.25
-371.073
-123.886
-1391.76
-1138.82
-835.111
-507.235
-169.902
-1556.16
-1257.14
-911.915
-550.249
-183.926
-6868.12
-4765.2
-3273.17
-2511.08
-2196.55
-4753.36
-3154.78
-1961.54
-1390.91
-857.036
-5145.41
-3064.98
-1983.65
-1226
-519.428
-3883.83
-2427.75
-1462.08
-916.863
-464.014
-2563.85
-1510.32
-864.01
-514.295
-219.935
-3209.22
-2305.5
-1522.46
-870.883
-290.112
-4074.73
-2605.6
-1649.24
-938.625
-328.755
-2143.34
-1283.67
-758.221
-400.994
-130.615
-2253.32
-1678.87
-1136.63
-656.184
-216.354
-2458.18
-1772.77
-1163.92
-655.398
-212.964
-1753.94
-1320.61
-899.614
-519.486
-170.329
-11676.6
-8145.7
-5807.97
-4314.23
-3327.63
-6094.48
-4206.98
-2860.55
-1764.21
-712.287
-1884.26
-1417.99
-972.345
-569.502
-190.883
-3449.12
-2640.97
-1843.75
-1097.4
-372.89
-5235.85
-3912.33
-2708.02
-1630.96
-581.292
-3519.02
-2709.81
-1906.32
-1144
-391.19
-3568.73
-2789.93
-1982.61
-1192.7
-404.625
-2525.52
-1987.84
-1414.58
-846.849
-284.087
-1291.42
-1007.77
-707.981
-417.493
-138.104
-1811.82
-1448.71
-1040.86
-623.784
-207.904
-2141.61
-1646.7
-1145.6
-673.834
-223.956
-2406.66
-1885.6
-1334.93
-795.397
-266.028
-12409.6
-9335.44
-6855.32
-5108.93
-3601.04
-7890.6
-5344.38
-3736.44
-2431.02
-1074.6
-7712.21
-5705.95
-3926.36
-2540.53
-1087.03
-5708.72
-4098.52
-2853.57
-1770.76
-665.401
-5533.3
-4199.73
-2945.13
-1788.96
-635.113
-5858.35
-4185.19
-2898.65
-1790.94
-664.099
-2079.03
-1606.71
-1129.56
-674.574
-228.273
-2549.03
-2038.13
-1466.52
-881.291
-294.524
-3804.86
-2960.29
-2092.81
-1253.28
-423.524
-7028.34
-14471.1
-14729.3
-41076.3
-14176.3
-53698.2
-7866.2
-19217
-14214.9
-10891.9
-24140.4
-19954
-13780.7
-12561.6
-26500.2
-20539.7
-5241.39
-3958.35
-10336.6
-7250.73
-11710.3
-8885.49
-31982.8
-24032.1
-19023.3
-14128.3
-19795.7
-11713.8
-1354.51
-4839.55
-50256.6
-65019.2
-30176.2
-38037.6
-65109.6
-82930.7
-31682.1
-37334.1
-38021
-51871.1
-30951.7
-41956.3
-21195.5
-31290.3
-2613.85
-707.191
-4649.47
-1600.78
-8883.88
-4074.24
-18129.2
-6625.27
-3891.98
-2273.95
-9599.96
-3070.65
-19782.2
-6289.22
-25560.4
-8716.3
-19217.9
-10336.2
-22794.4
-13515.5
-16743.6
-12238.1
-19505.7
-14821
-18951.6
-11226.5
-14808.2
-8057.16
-26058.8
-16270.8
-27235.7
-17059.4
-23196.6
-16940.4
-24616
-17648.4
-22348.6
-13938.6
-23877.1
-14817.1
-21304.6
-9751.65
-9658.52
-13216.5
-18979.6
-10081.8
-7473.92
-13280.5
-23507.1
-9876.42
-11543.1
-13366.4
-24891.7
-10129.3
-12873.7
-13992
-1502.58
-1427.11
-407.972
-1881.77
-6112.33
-6522.8
-4034.93
-8400.69
-3854.08
-4766.88
-6534.74
-12522.1
-12730.5
-9134.3
-11025.5
-14469.4
-10344.6
-6887.37
-8064.15
-8704.83
-16924.5
-16639.6
-13399
-12159.7
-9314.38
-8595.29
-18581.5
-1572.82
-1164.22
-938.135
-1056.31
-5771.37
-4470.48
-5131.24
-4532.93
-1305.55
133.396
-6197.55
-4897.08
-9633.88
-10201.4
-9198.12
-8542.25
-8126
-5894.78
-10977.5
-8585.55
-11269
-8787.6
-11859.6
-11215.4
-10736.4
-7365.89
-8510
-4944.54
-8094
-4460.5
-13101.8
-7535.3
-9639.57
-3975.34
-8844.27
-9355.89
-13131.1
-16698
-14006.8
-20016.2
-7273.36
-7874.61
-8496.68
-1803.23
-8380.98
-15629.4
-8327.59
-17138.2
-14094.5
-24995.4
-14621.4
-26851.5
-6741
-14102.4
-6554.45
-15376.5
-9661.76
-6781.03
-14692.6
-5381.55
-8921.1
-864.231
-12578.1
-465.013
-9766.64
-10688.7
-15518.6
-6844.65
-8434.1
-12842.2
-13974.4
-9053.43
-1093.85
-1001.63
-843.302
-962.803
-3380.17
-2503.78
-3258.34
-2981.98
772.081
92.9596
-3786.75
-4053.78
-9860.62
-8856.64
-7760.94
-6197.26
-4718.97
-3699.58
-6797.96
-5439.54
-7407.52
-5280.09
-16999.3
-13770.8
-8152.49
-6080.14
-6928.05
-4457.41
-6289.83
-3349.68
-7358.48
-2568.05
-5698.77
-9299.35
-4831.8
-9753.17
-9279.07
-11241.8
-10596.4
-14381.5
-878.292
-529.222
-487.723
-337.966
-3411.58
-2115.11
-2506.88
-986.975
-769.877
-1308.29
-8088.35
-8509.01
-3978.15
-3365.49
-9977.36
-10733.8
-16506.8
-19294.2
730.577
4352.66
-7191.08
-7283.37
-6866.81
-5518.61
-847.185
-706.889
-857.732
-661.361
-1326.03
-644.185
-119.673
4.55429
-7182.59
-2723.67
-6069.69
-2192.4
-8736.6
-2945.15
-10833.7
-3378.06
-5303.88
-10089.6
-7221.98
-10671.7
-9256.72
-12450.6
-12632.7
-13563.9
-4902.78
-8331.34
-4251.54
-8191.12
-8635.3
-10861.6
-10123.1
-11305.2
-14863.7
-14303.6
-16470
-14889.8
-5390.82
-8279.1
-6144.53
-8554.63
244.915
-1079.81
-6237.37
-3319.49
279.338
-1074.14
-6102.85
-3134.91
-99.3436
-1203.77
-6297.66
-3481.05
-412.372
-1258.43
-6264.48
-3446.7
-839.16
-877.406
-712.95
-703.723
-1587.75
-1554.33
-827.634
-807.012
-7134.51
-6259.76
-2600.7
-2415.71
-2950.1
-4254.53
-3305
498.334
-701.64
-395.371
-818.374
-3405.94
2621.1
-11.9394
-14779.9
-11634.1
-9408.03
-7163.9
-3504.01
-836.996
-692.97
-735.446
-814.81
-1488.07
-1130.82
-1007.16
-1269.56
-6115.66
-5579.77
-2533.84
-3002.12
-4368.62
-6048.66
-2429.87
-4280.28
-4011.16
-4219.97
-437.936
-843.764
-1291.24
-1981.96
-9365.34
-7189.94
-6805.55
-4629.69
-5246.5
-3510.2
-3912.99
-2582.62
-2060.43
-2073.7
-7158.9
-6741.18
-9925.48
-6224.47
-9861.53
-10030.8
-12547.6
-10233.5
-7426.51
-4372.27
-5254.54
-4987.92
-11098.5
-5150.21
-12056.7
-5408.85
-13677.4
-10154.5
-14659.6
-10705.7
-8366.13
-3387.5
-9091.03
-3568.23
-5129.99
-3577.88
-2972.51
-3854.58
-4218.38
-4128.02
-2925.85
-4041.23
-5451.36
-3243.32
-3008.11
-4136.64
-6420.09
-3251.56
-3771.16
-4005.35
-506.243
-445.253
-581.483
-469.081
-1003.49
-1187.84
-824.919
-698.377
-5146.08
-4470.01
-1923.57
-912.832
-6938.25
-6230.02
-5110.11
-4317.6
-3910.81
-3263.32
-1206.83
-1266.16
-1877.41
-935.331
-7679.01
-6115.81
-4089.05
-3171.36
-2919.03
-2032.37
-1837.55
-1058.26
-1903.57
-95.0098
-98.5739
-38.1698
-13.0744
2.42757
-45.1149
-26.2274
1.8654
10.8823
-278.703
-104.999
1.56632
36.6936
-158.71
-79.1
27.3091
45.0332
-503.936
-172.463
14.749
87.0488
-404.982
-159.826
-31.1643
12.2899
-301.62
-110.618
-46.566
-14.4869
-282.454
-92.9498
-4.70406
22.4919
-843.378
-265.069
-82.8939
0.339122
-1016.66
-279.43
-99.7192
57.9094
-769.584
-236.606
-49.2048
45.9862
-906.579
-245.013
-107.174
43.6655
-817.242
-254.035
-46.9977
38.4762
-1073.78
-296.473
-98.4239
73.8909
-781.822
-236.288
-21.7414
65.5379
-1085.9
-298.299
-95.3919
79.5256
-99.9202
-35.0123
-7.02165
10.9233
-84.375
-25.5595
-13.5363
8.86306
-251.776
-88.0246
-6.61581
33.8857
-204.675
-62.9874
-30.8992
24.7987
-563.255
-176.962
-24.7715
61.2013
-496.242
-145.475
-51.7962
49.8205
-579.022
-174.294
-26.247
54.935
-439.876
-124.436
-58.0155
55.1308
-896.316
-237.208
-97.6519
83.6694
-60.0858
-17.5232
-4.88148
7.65776
-24.2356
-8.66576
-1.99569
0.876278
-183.899
-52.3211
-24.8186
14.8257
-80.7806
-26.6073
-11.307
-0.112472
-337.968
-91.8047
-40.6694
25.5034
-168.698
-49.4493
-17.4546
0.553719
-521.06
-134.562
-51.0703
41.7026
-303.828
-77.2623
-24.1495
1.09149
-701.046
-171.023
-91.3076
23.8166
-410.955
-95.6566
-38.4762
-4.46565
-945.716
-229.507
-105.136
27.8167
-429.051
-101.93
-38.2005
-3.54064
-893.93
-215.165
-110.395
18.2276
-460.785
-106.427
-39.9855
-4.82514
-969.452
-231.058
-97.0072
40.3815
-407.79
-93.1473
-29.3645
2.18622
-963.222
-223.796
-87.6594
45.6047
-393.454
-83.221
-21.5479
6.65338
0.807449
-0.241985
-0.217182
-0.114534
-0.0646935
-0.691337
-0.815461
-0.442162
-0.20878
-0.113611
2.24393
-0.601833
-0.523471
-0.272278
-0.152819
-2.05228
-1.98282
-1.03875
-0.483724
-0.261323
3.81615
-0.716032
-0.655188
-0.339782
-0.190067
-3.54195
-2.78729
-1.41474
-0.650976
-0.349663
-2.38796
-1.54966
-0.763015
-0.346229
-0.184272
0.816142
-0.474918
-0.340745
-0.169141
-0.0927019
0.978532
-1.14521
-0.754304
-0.370456
-0.203445
1.70844
-0.270306
-0.264173
-0.137526
-0.0767439
-0.891706
-1.84165
-0.999424
-0.46765
-0.252963
1.27775
-0.359317
-0.282921
-0.143006
-0.0793212
3.12681
-0.327296
-0.395436
-0.211296
-0.118702
2.01938
-0.205925
-0.230749
-0.12078
-0.0672597
6.35596
0.606825
-0.0518718
-0.0706241
-0.04672
3.94986
0.393372
-0.00346214
-0.026488
-0.0187439
1.24157
-0.0890953
-0.142351
-0.0798474
-0.0459987
0.378705
-0.17116
-0.131703
-0.0683704
-0.0387188
2.4164
-0.463982
-0.422078
-0.220306
-0.124074
0.580671
-0.611057
-0.39442
-0.195478
-0.108779
5.1306
-0.340703
-0.47804
-0.258652
-0.146732
0.0793808
-1.06117
-0.603826
-0.288123
-0.157851
-0.772612
-1.50631
-0.788241
-0.365349
-0.197313
-1.51602
-1.07105
-0.51937
-0.237162
-0.127855
-1.49491
-0.984767
-0.465057
-0.209565
-0.111958
83.6805
-164.289
334.929
-383.514
704.718
-462.396
1316.08
-224.925
1769.91
660.284
-422.65
-1205.61
1086.77
735.243
-1167.81
-2130.1
-1668.9
-2540.01
-933.909
-229.474
-54.1107
-12.5786
-3.3941
-213.004
-131.418
-18.6781
-5.54632
-2.64419
-2880.05
-701.651
-165.907
-38.3822
-10.3753
-493.646
-165.152
-45.3669
-10.4408
-3.16006
-4820.22
-1174.26
-278.467
-64.6934
-17.4745
-872.132
-297.69
-79.2827
-20.0137
-5.54706
-6421.53
-1565.29
-372.889
-87.0152
-23.5855
-1094.18
-388.644
-105.132
-26.5796
-7.31679
-7966.33
-1954.99
-469.027
-110.167
-30.0672
-1314.34
-490.566
-134.403
-34.1426
-9.47652
-9263.33
-2340.25
-570.227
-135.547
-37.3631
-2200.12
-708.118
-183.981
-44.9525
-12.3066
-8713.6
-2192.19
-531.11
-125.491
-34.3932
-1661.8
-589.605
-158.501
-39.596
-10.8701
-9478.27
-2399.54
-586.497
-139.857
-38.6868
-2526.71
-782.943
-200.117
-48.181
-13.1497
-9834.25
-2470.5
-605.179
-144.394
-39.9668
-2645.27
-819.544
-210.888
-47.3894
-13.6149
-555.704
-8167.76
-7022.87
-2203.28
-1660.89
-782.32
-3840.67
-2440.63
-7344.38
-6730.64
-3585.8
-2581.34
-87.2574
-151.25
-292.975
-537.836
-919.378
-1462.49
-68.0283
-165.512
-380.673
-742.655
-1271.07
-1951.19
-62.413
-27.9223
-119.878
-77.401
-247.364
-192.546
-468.595
-412.496
-772.421
-700.907
-1193.21
-1002.01
-2101.05
-2741.75
-3435.51
-5950.72
-7392.6
-8578.15
-2698.32
-3351.19
-3723.31
-3777.69
-3593.14
-3404.49
-78.1003
-65.3963
-49.052
-30.3066
-10.2408
-135.137
-112.911
-84.5038
-52.1186
-17.5945
-261.201
-217.68
-162.496
-100.021
-33.7296
-478.162
-397.18
-295.536
-181.468
-61.1188
-814.146
-673.212
-498.793
-305.334
-102.683
-1287.51
-1057.76
-779.174
-475.122
-159.518
-60.8248
-50.8658
-38.1033
-23.5176
-7.9423
-147.68
-123.192
-92.0512
-56.7032
-19.1294
-338.907
-281.975
-210.157
-129.205
-43.5445
-659.216
-546.598
-406.046
-249.036
-83.8287
-1123.71
-927.511
-686.114
-419.567
-141.037
-1715.65
-1407.74
-1035.95
-631.35
-211.935
-55.911
-46.8648
-35.1893
-21.7598
-7.35621
-25.0245
-20.9871
-15.7673
-9.75427
-3.29835
-107.23
-89.7169
-67.2387
-41.5153
-14.0232
-69.2884
-58.0274
-43.5312
-26.8982
-9.08949
-220.849
-184.36
-137.851
-84.9593
-28.6696
-172.063
-143.792
-107.634
-66.3914
-22.4136
-417.258
-347.22
-258.808
-159.117
-53.6249
-367.602
-306.182
-228.416
-140.518
-47.3705
-685.203
-567.675
-421.314
-258.197
-86.8733
-622.354
-516.117
-383.359
-235.045
-79.0957
-1051.88
-865.305
-637.981
-389.157
-130.65
-884.462
-728.421
-537.419
-327.843
-110.04
-1833.34
-1492.37
-1090.98
-662.336
-222.116
-2359.2
-1894.8
-1371.52
-829.152
-278.357
-2889.59
-2275.33
-1626.56
-981.327
-332.157
-4814.01
-3684.97
-2600.74
-1580.3
-552.454
-5615.77
-4142.49
-2895.14
-1799.28
-679.56
-6235.8
-4494.07
-3124.22
-1975.72
-788.244
-2355.46
-1918.2
-1402.86
-851.927
-285.702
-2896.57
-2336.14
-1696.18
-1026.67
-344.382
-3172.78
-2526.29
-1818.78
-1098.41
-369.64
-3146.96
-2460.13
-1753.36
-1059.73
-360.748
-2874.7
-2183.89
-1538.23
-937.803
-330.15
-2620.1
-1938.68
-1352.13
-833.297
-304.281
-89.0838
-157.638
-306.781
-564.298
-966.588
-1535.67
-70.3563
-173.803
-398.64
-775.466
-1322.31
-2018
-63.9228
-28.971
-125.474
-81.7711
-260.565
-204.626
-496.674
-441.888
-829.573
-778.097
-1289.55
-1153.35
-2195.67
-2851.11
-3554.52
-6031.15
-7416.16
-8579.17
-2769.34
-3411.05
-3761.23
-3787.34
-3582.68
-3397.07
-79.7641
-66.8204
-50.1452
-30.995
-10.476
-140.96
-117.898
-88.3357
-54.5333
-18.4195
-273.801
-228.489
-170.811
-105.266
-35.523
-502.359
-417.982
-311.575
-191.604
-64.5873
-857.423
-710.523
-527.641
-323.603
-108.941
-1354.97
-1116.3
-824.72
-504.106
-169.476
-62.9458
-52.6815
-39.4974
-24.3956
-8.24219
-155.24
-129.672
-97.0323
-59.8433
-20.2025
-355.322
-296.073
-221.017
-136.062
-45.8903
-689.273
-572.493
-426.055
-261.703
-88.1674
-1170.86
-968.322
-717.801
-439.7
-147.947
-1777.57
-1461.78
-1078.24
-658.391
-221.25
-57.2847
-48.039
-36.0894
-22.326
-7.54945
-25.9777
-21.8007
-16.3901
-10.1456
-3.43183
-112.324
-94.0736
-70.5804
-43.6183
-14.7412
-73.262
-61.4208
-46.1301
-28.5317
-9.64682
-232.876
-194.656
-145.756
-89.9373
-30.3699
-183.054
-153.185
-114.834
-70.9195
-23.9591
-442.882
-369.196
-275.71
-169.777
-57.2686
-394.407
-329.152
-246.069
-151.645
-51.1726
-737.372
-612.424
-455.735
-279.905
-94.2935
-692.506
-575.981
-429.169
-263.819
-88.9105
-1140.23
-941.477
-696.858
-426.428
-143.416
-1022.01
-845.787
-627.209
-384.227
-129.268
-1921.53
-1569.8
-1151.88
-701.426
-235.614
-2462.99
-1987.56
-1445.66
-877.343
-295.138
-3005.95
-2382.15
-1713.88
-1039.13
-352.577
-4905.5
-3778.55
-2683.92
-1639.14
-574.545
-5658.42
-4194.42
-2946.71
-1839.38
-696.404
-6246.61
-4510.14
-3141.82
-1990.41
-794.839
-2422.15
-1977.24
-1449.69
-882.183
-296.187
-2954.26
-2388.57
-1738.75
-1054.67
-354.191
-3211.62
-2563.56
-1850.42
-1119.93
-377.349
-3161.16
-2477.05
-1769.92
-1072.13
-365.514
-2870.41
-2184.37
-1541.72
-941.913
-332.209
-2615.56
-1936.47
-1351.69
-833.842
-304.774
-19664.3
-13715.7
-2964.52
-1898.99
-1462.75
-1848.65
-2027.75
-12134.4
-12581.9
-9793.24
-11065
-5499.88
-8731.44
-3959.16
-4220.89
-2885.75
-19303.8
-9414.25
-2912.63
-4831.37
-7182.03
-4598.76
-4603.29
-3331.93
-1900.22
-2521.33
-3304.68
-3326.82
-19061.1
-11959.5
-11440.7
-7774.8
-7175.93
-8168.23
-2898.15
-3314.32
-4959.51
-12933.3
-10163.6
-7508.31
-5834.39
-4118.41
-8548.26
-5572.47
-3905.16
-2590.59
-1139.11
-2558.61
-2062.96
-1499.66
-910.061
-306.323
-1666.7
-1365.63
-1004.45
-612.444
-205.792
-1283.41
-1050.66
-771.662
-469.709
-157.61
-1631.39
-1343.94
-992.55
-606.365
-203.76
-1772.04
-1445.02
-1058.28
-643.415
-215.936
-8115.65
-6100.48
-4446.83
-3396.05
-2741.17
-8580.42
-6716.27
-4894.7
-3462.28
-1790.12
-6722.83
-4522.67
-3155.57
-1991.68
-781.379
-7611.46
-5764.36
-4133.51
-2736.22
-1182.34
-4477.13
-3434.88
-2413.79
-1442.08
-487.042
-6580.55
-4719.35
-3263.43
-1955.1
-678.653
-3320.8
-2605.72
-1854.1
-1110.77
-372.453
-3524.76
-2755.13
-1954.98
-1169.72
-392.255
-2447.99
-1938.78
-1387.36
-832.359
-278.404
-12538.2
-9120.3
-6712.07
-5018.67
-3743.98
-6943.94
-5025.34
-3542.37
-2223.45
-883.535
-2431.67
-1903.46
-1355.1
-815.11
-275.837
-4042.57
-3175.24
-2271.04
-1374.88
-469.854
-5798.87
-4449.19
-3155.74
-1931.57
-690.322
-3829.35
-2997.14
-2141.68
-1299.81
-446.451
-3886.66
-3077.52
-2214.44
-1344.41
-457.857
-2847.56
-2274.68
-1642.51
-994.157
-335.236
-1635.08
-1312.37
-948.56
-572.1
-191.537
-2192.61
-1778.94
-1297.31
-786.714
-263.863
-2808.12
-2229.42
-1600.19
-963.427
-323.637
-2844.61
-2272.62
-1640.1
-991.409
-333.821
-12412.6
-9425.75
-6997.22
-5270.45
-3752.41
-7988.79
-5462.01
-3852.13
-2522.4
-1113.71
-8239.61
-6248.41
-4417.02
-2900.09
-1237.65
-5931.27
-4330.93
-3060.68
-1918.25
-720.718
-5815.57
-4477.74
-3183.87
-1953.38
-696.059
-6224.06
-4546.71
-3212.68
-2009.97
-747.101
-2443.19
-1930.69
-1386.62
-840.6
-285.992
-2870.8
-2320.52
-1688.19
-1023.25
-343.488
-4181.85
-3302.87
-2369.53
-1434.41
-487.045
-279.45
-824.767
-1378.69
-1963.25
-2564.41
-3158.91
-3218.29
-8539.4
-7846.69
-3044.84
-10660.9
-9127.17
-10258
-11265.7
-2984.1
-1909.59
-6977.3
-3778.53
-12598.3
-9481.02
559.939
-2569.52
-6988.99
-6291.31
-2397.23
-8862.06
-7195
-8367.4
-9220.88
-2464.89
-1049.78
-6054.16
-1756.2
-9991.75
-5630.72
2471.2
-1809.47
-5104.44
-4526.44
-1670.99
-6702.99
-3882.81
-6424.2
-6800.35
-1808.19
-974.397
-4158.48
-1909.22
-7517.23
-1694.62
2643.39
-1249.86
-3726.13
-3305.9
-1179.68
-4782.94
-1940.56
-4961.76
-5504.08
-1298.57
-1051.37
-2941.89
-2001.29
-6226.83
93.6868
1992.71
-944.122
-2974.38
-2645.02
-921.737
-3530.72
-1422.55
-4157.9
-5073.42
-968.623
-1186.4
-1967.57
-1974.23
-5222.09
290.143
393.822
-788.452
-2491.74
-2298.39
-787.076
-3099.37
-1778.03
-3644.75
-4701.1
-698.716
-935.484
-1471.6
-1893.95
-5168.24
-901.693
-606.938
-1412.71
-3422.15
-5463.41
-2135.46
-5456.68
-9589.8
-7834.95
-11155.5
-902.953
-525.048
-3614.82
-1841.45
-860.758
-8594.25
-3966.04
-1290.27
-3128.49
-4687.41
-1814.18
-4925.44
-8436.02
-6881.14
-9178.46
-906.75
-410.048
-3680.64
-1614.47
-19.0647
-8145.05
-2600.53
-1087.37
-2641.86
-3652.94
-1388.39
-4298.83
-7061.76
-5573.82
-7570.79
-760.208
-463.552
-2956.99
-1615.39
-250.487
-6033.85
-2292.96
-875.274
-2239.67
-2811.72
-1045.31
-3760.49
-5910.5
-4640.46
-6394.34
-643.225
-452.435
-2537.4
-1596.19
-175.421
-5184.73
-2158.79
-738.919
-1902.35
-2328.92
-850.786
-3177.66
-5065.6
-3976.39
-5763.23
-558.738
-503.613
-2130.4
-1697.16
-362.773
-4678.66
-2186.66
-651.375
-1604.13
-2051.56
-740.949
-2797.28
-4887.69
-3508.06
-5390
-555.514
-591.014
-1802.49
-1602
-639.897
-4756.54
-2503.01
7330.48
9264.31
18902
27880.3
28512.3
48957.4
21632.4
54752.3
17426.3
38195.2
26085.7
39740
23193
30812.3
8810.81
10068.9
18615.2
21370.3
23603.1
23471.1
18349.7
22397.6
26809.5
23968.1
6223.95
4895.96
7607.46
5291.02
15775.9
12960
26689.9
19763.9
20496.2
21492.3
23319.4
22899.8
8744.89
6552.74
47706.1
63910.7
31105.7
38131.1
63009.5
82001.6
32782.9
37583.2
35945.9
50787.4
31744.7
41891.7
18874.1
30132.6
3586.88
1249.6
3648.79
1348.05
11400.3
4665.88
15457.7
5779.9
11368.7
4320.29
11616.5
3776.28
19567.3
6307.73
25223.8
8619.48
28764.5
14651.9
26456.2
15666.6
26247
16999
23247.5
17075.1
21510.1
12946.2
21621.8
11406
27421.4
17216.8
27561.4
17312.8
24675.2
17923.9
25009.7
17912.1
23213.2
14705.6
24060.7
15024.3
22308
10008.1
10766
13550.7
22317.7
11021.4
9599.73
13993.8
23628
9884.01
12033.8
13503.7
24845.8
10104.3
13001.5
14025.8
4610.07
5007.47
1629.53
3320.02
14034.8
14892.2
5679.64
10653.2
18033.8
19670.3
9433.2
16301.5
12172.8
-111.568
15244.6
20238.9
11808.5
-544.508
6491.47
14237.8
23801.2
18851
11715.4
14869.7
13900.9
12794.7
20491.9
4055.71
3127.99
2350.96
2316.46
12379.1
9799.4
8037.38
7453.12
15045.4
11675
10382
9057.27
5231.73
6939.88
11416.6
12092.6
15728.7
14041
18053.7
15025.1
13842.2
11582.7
9565.58
9100.37
12978.5
8852.45
12446.2
7756.61
11398.2
6772.61
14399.2
8887.86
10938.6
3531.8
9805.48
9545.6
13133.3
15859.6
14602.4
20182.6
8231.41
8067.32
10049
1461.05
8885.41
15852.4
8482
17224.5
14525.2
25139.4
14766.9
26942
7217.94
14273
6696.16
15439.8
10243.1
6804.88
14783
5230.31
9933.09
239.937
12623.2
-622.293
10045.5
10762.3
15559.5
6827.44
8525.3
12873.4
13990.9
9052.98
2215.88
1830.48
1449.31
1686.05
1450.46
1181.79
7278.51
5148.57
3872.77
5047.56
3459.24
2606.48
8115.91
6076.11
5186.29
5901.25
4057.16
3488.36
5459.1
4016.8
3615.7
9913.7
6149.57
4583.18
10292.1
6241.44
4349.14
10673.1
7089.88
5542.87
7987.29
4424.39
3009.39
14058.5
10325.6
7736.38
9907.06
7012.68
4837.68
9766.73
6364.01
4100.5
9011.06
5478.19
3347.35
10552.4
5223.64
2365.18
11513
15282.6
9378.36
11812.8
13176.1
18863.9
12034.7
16941.8
55.0149
602.016
-402.665
135.685
3084.17
3353.27
1453.71
929.983
1083.98
2725
10007
14195.5
6571.96
3997.13
11174
11126.1
17883.6
19729.5
-408.201
-4274.61
8211.24
7649.41
7475.82
5708.11
906.383
487.378
676.643
345.392
2140.82
225.979
33.2663
-549.825
9252.82
2161.22
6594.03
1714.86
9275.11
2727.93
11073.9
3311.19
9996.12
12323.8
9116.51
11947.2
16420.6
16497.2
15548
15502.5
5947.02
8941.54
6914.76
8924.9
9569.88
11467.9
10416.3
11476.6
16166.3
15165.1
16852.8
15125
5930.93
8604.76
6326.3
8650.98
-257.38
808.112
6265.34
3092.1
-658.403
475.052
5802.32
2707.27
124.356
1037.19
6356.65
3363.91
432.711
1197.7
6288.24
3409.6
-551.892
-619.871
133.958
-33.3811
-2480.81
-2402.09
-203.975
-423.304
-488.21
-1605.27
1199.91
528.351
-9602.24
-10041.3
-4913
-3700.52
-588.655
-10844
-10139.6
-3638.17
-5239.27
-956.371
11192.1
8343.7
6674.25
5531.37
2630.35
-546.753
-426.398
-88.3533
-59.4168
-1852.12
-1530.2
-263.524
-167.878
-1913.34
-1981.28
186.483
210.183
-4800.69
-1614.91
-7022.27
-3688.01
-2772.72
-1711.1
-3091.66
-2291.63
-91.3733
367.563
4126.95
2501.72
1413.89
-494.475
1009.99
-428.096
1122.27
68.6641
871.935
846.631
5083.1
4314.12
9435.29
5520.69
8333.9
7745.82
12493.4
9678.88
6718.37
3719.15
3354.7
3035.2
11072.1
4811.71
12082.9
5351.32
13893.3
9925.5
14756.1
10691.2
8161.45
3047.68
9056.99
3496.13
4456.66
3054.42
2427.48
3354.82
2743.23
2724.13
2010.48
3083.07
5172.57
2945.36
2737.53
3854.95
6349.21
3171.76
3692.31
3932
-340.134
-295.527
-306.751
-45.577
-109.451
-111.223
-1296.97
-1170.25
-1080.21
-147.354
-317.648
-297.649
-1787.7
-1654.67
-1529.76
163.814
-325.325
-396.123
-579.703
-475.79
-206.564
-2047.43
-1928.51
-1659.3
-1518.86
-1550.12
-1432.47
-1912.07
-1755.08
-1573.08
509.987
-135.885
-179.472
3521.55
1945.38
1060.83
-125.04
-755.568
-1047.44
-218.14
-894.36
-1137.64
-90.164
-737.938
-887.014
986.824
-166.387
-289.709
-4.00318
-6.11192
-5.91442
-9.56921
-137.343
-56.2505
-35.8321
-24.2969
21.0414