/*--------------------------------*- C++ -*----------------------------------*\
| =========                 |                                                 |
| \\      /  F ield         | OpenFOAM: The Open Source CFD Toolbox           |
|  \\    /   O peration     | Version:  2306                                  |
|   \\  /    A nd           | Website:  www.openfoam.com                      |
|    \\/     M anipulation  |                                                 |
\*---------------------------------------------------------------------------*/
FoamFile
{
    version     2.0;
    format      ascii;
    arch        "LSB;label=32;scalar=64";
    class       volScalarField;
    location    "2.8";
    object      gradTy;
}
// * * * * * * * * * * * * * * * * * * * * * * * * * * * * * * * * * * * * * //

dimensions      [0 -1 0 1 0 0 0];

internalField   nonuniform List<scalar> 
5712
(
11414.7
6581.29
18526.1
12131.3
20197
14942
31734
39272.8
41692
50961.7
26950.8
23400.8
17126.5
13560.2
8591.79
5809.45
19221.1
19723.8
16529.1
19453.3
25958
23252.6
29887.5
24258.2
8080.7
5844.42
4532.89
3365.07
9690.98
7905.9
5862.33
4726.59
17485.8
18212.1
17919.1
15227.4
14042.9
10908
10952.5
12422.1
17666.4
17560.8
36946.5
38178.2
26255.4
27017.5
14895.9
12562.8
16275.2
11616.8
7569.98
7757.36
6142.74
8420.01
3209.16
3819.11
8434.2
11343.3
5007.54
5792.79
9388.93
15475.2
6487.95
10515.8
2480.87
6272.02
2063.74
4690.11
17444.6
21526.6
17923.2
21389
21365.5
21616.1
21678.4
21287.2
15204.1
20569.1
15695.8
20347
17618.5
21214.2
17592.3
21149.2
21809.6
20982.3
21709.9
20765.5
14024.2
20639.5
13525.9
20704.5
16975
19761.5
21445.6
29686.8
17961.3
22701.7
21236.3
32091.7
16105.6
17451.5
21545.7
28618.8
15939.1
16357.8
21785
28440.2
4904.1
6355.72
12458.1
21490.6
6132.26
6925.8
16158.5
24635.9
7716.17
7778.41
20649.7
27815.5
23982
25934.8
20118.7
19262.9
27455.9
26178.8
24589.7
20574
17718.1
31198
23817.8
23395.4
20700.5
20338.7
35935.6
1926.06
2302.16
4077.03
9067.91
2750.27
3084.91
5701.57
10299.1
4146.04
3501.83
7837.94
11999
26078.1
26050
23410.1
23297.8
19858
18440.4
14954.3
13344.1
10401.1
14241.6
23665.5
23088.7
23723.5
23553.3
20475.4
19348.8
16791.1
15131
11129.1
14494.2
23395.7
26422.8
23294.7
27018.6
22729.3
23656.6
22146.3
23751.2
21131.7
21531.2
20970.1
20928.6
23095.6
27111.2
22973.3
27066.9
21474.8
24005.8
21279.9
23929.8
21212.9
21484.1
21198
21463.7
17683
16824
11365.4
12587.6
17546
16359.5
11177.5
12569.2
17943.4
16790.6
11622.4
12672.1
18018.6
16626.8
11988.2
12695.4
1601.05
1115.8
791.159
947.376
675.302
634.075
2214.48
1379.4
1067.39
1886.15
1549.91
1360.79
2626.61
2275.22
2319.77
3335.68
2788.69
2534.86
25295.9
23258
21765.1
23148
21819.6
20673.3
16537.8
15615.7
15117.3
11113.6
9857.7
9337.64
5069.72
3844.65
3303.76
22784.1
21501.2
20298.9
23221.9
21570.8
20201.4
17084.9
15007.5
13809.3
11072.3
9090.86
8289.11
5403.69
3837.11
3125.93
26427.9
25983.1
28697
25858.2
29538
25890
35554.1
27175.4
20537.9
20960
20244.2
18836.2
23052.4
21811.4
22572.6
19332
22315.2
22241.4
20633.4
22184.3
27658.4
24698.2
27173.5
27554.7
29440.4
30410.3
22604.9
23438.2
20294.6
19688.9
24684.5
25286.4
16169.2
8504.25
15042
9444.75
16401.1
8577.05
14976.8
9371.26
16214.2
8628.38
14966.9
9782.72
14527.8
10246.5
14687.6
10159.4
20886.8
17972.3
20675.9
17892.6
23011.5
20877.9
23149.4
20613.1
20274.2
14976
21251
14827.3
21073.5
17774.3
21310
17561.5
23682.1
20406.8
23668.4
20129.9
20015.8
14993.4
19927.6
14893.1
13266.3
8650.48
11821.3
7270.74
12405.6
7724.72
11388
6766.16
13562.7
9212.14
11993.5
7500.92
13563.8
9564.12
11953.9
7552.29
2465.53
1239.81
4353.16
2077.52
2645.42
1562.53
4651.62
2586.75
3297.26
2442.26
5194.96
3566.85
13114.8
20254.1
9404.63
8984.74
6093.76
19919.9
13942.1
8145.85
8166.22
4939.92
20616.5
16317.2
13003.8
10060.9
5877.98
618.819
469.592
961.406
598.364
951.81
650.463
1589.12
1205.6
1761.55
1427.44
2567.71
2042.28
20383
20042.1
13933.6
13649
9082.7
9444.41
7621.09
7272.79
4164.31
3397.25
19037.3
17595
14884.7
13370.3
11655.9
10673.6
8808.88
8265.16
5182.29
5401.24
15167.3
12599.6
15209.9
12231
18068.6
15250.7
17963.4
14944.4
12841.7
10751.6
12489
10845.1
15181.2
12000.2
15077.8
11970.6
17860.4
15174.9
17673.7
15112.6
13053.4
10552.1
13026.7
10693.6
9973.36
8762.65
6238.63
6966.74
9628.79
8609.09
5925.82
6621.58
10397.8
8928.9
6402.05
7412.46
10658.9
8936.91
6676.44
7527.23
2093.53
1860.7
1546.87
9344.29
4952.81
4043.81
2009.42
2012.17
1795.6
10030.7
5812.24
4929.91
2733.23
3109.14
3205.53
10926.4
7212.03
6443.28
19290.4
18394.4
17669.8
13475.7
13360.3
13240.8
10040.5
10151
10250.1
8860.91
8736.12
8594.1
12287.5
8850
8037.7
16387.8
15459.6
14779.2
12503
11942.2
11592.7
10669.1
10159
9823.45
10571.8
9562.24
8931.79
14887.4
9968.42
9015.11
4492.3
2812.14
2129.39
2028.7
5143.58
3106.52
2266.65
2077.3
4505.82
2800.24
2131.85
2045.53
5260.08
3173.29
2307.9
2093.16
4468.03
2747.49
2113.16
2015.65
5360.85
3205.76
2338.19
2064.36
5811.59
3426.02
2421.9
2185.05
5999.65
3574.93
2518.15
2285.31
4788.8
2943.22
2194.67
2030.83
3693.95
2461.38
1961.45
1952.15
4097.02
2602.88
2013.11
1864.75
3326.68
2286.19
1868.79
1863.71
5247.68
3198.11
2326.73
2142.57
3909.7
2588.99
2022.02
2023.58
5503.42
3368.49
2417.02
2216.09
3998.07
2678.3
2068.77
2057.57
3205.58
2320.19
1896.06
1912.17
1744.05
1718.18
1608.48
1790.98
3199.11
2297.27
1887.45
1905.01
1843.6
1744.52
1618.42
1801.22
3266.7
2280.4
1883.19
1904.81
2176.15
1841.22
1655.49
1848.71
3173.02
2186.2
1824.74
1934.88
2454.35
1902.69
1696.76
1827.15
2830.13
2079.93
1760.4
1830.76
181.172
1219.21
1218.37
362.885
-1670.76
932.179
1047.75
395.925
441.45
1303.47
1249.4
385.16
-1326.62
1027.91
1075.94
405.34
925.828
1451.66
1301.62
384.818
-751.797
1187.84
1120.26
411.603
1507.98
1623.43
1367.01
420.649
-160.039
1360.48
1179.2
431.192
1868
1773.9
1446.29
499.2
-59.7602
1482.92
1233.05
448.159
2000.83
1928.65
1488.24
470.693
-516.662
1592.32
1328.08
477.087
1949.06
1860.08
1457.44
471.299
-535.617
1540.92
1281.32
460.138
2003.68
1977.09
1520.6
435.598
-608.459
1637.91
1363.51
481.046
2055.67
2030.61
1569.39
447.791
-500.806
1693.46
1405.76
494.823
2037.22
1632.42
1169.23
699.319
232.48
2013.32
1629.09
1170.06
700.203
232.788
2061.82
1644.77
1175.47
702.302
233.362
2042.29
1644.92
1178.46
704.302
234.015
2106.92
1662.46
1183.6
706.084
234.474
2077.38
1664.02
1188.4
709.163
235.48
2111.78
1686.23
1201.62
715.995
237.584
2162.38
1718.49
1220.64
725.809
240.605
2154.47
1683.97
1195.39
712.002
236.28
2302.02
1710.58
1203.1
714.947
237.1
2163.75
1678.38
1189.66
708.696
235.222
2298.13
1700.92
1196.76
711.601
236.052
2175.76
1703.61
1207.28
718.182
238.193
2344.16
1729.61
1213.92
720.526
238.829
2224.25
1734.84
1225.16
727.335
241.012
2395.58
1757.42
1229.4
728.439
241.276
2094.77
1640.47
1169.15
698.605
232.209
2204.61
1649.41
1169.39
698.194
232.047
2117.63
1650.19
1173.79
700.768
232.839
2222.64
1656.71
1172.92
699.855
232.534
2163.72
1666.51
1181.13
704.167
233.829
2262.34
1669.99
1179.24
702.842
233.407
2240.76
1685.44
1188.56
707.5
234.792
2309.83
1684.35
1186.49
706.31
234.41
2314.52
1695.24
1192.8
709.491
235.381
8915.67
13634.8
9398.19
13962.9
10123.2
14410.4
10662.1
14742.1
10327.1
14284.7
9710.24
10914.3
9671.51
11348.9
9794.61
10869.5
9980.28
11026.4
7857.38
1341.87
285.712
63.8495
11.273
8726.41
2478.71
600.067
135.686
23.9496
7967.54
1335.42
282.139
62.7903
11.054
8837.75
2476
596.829
134.269
23.4913
8096.46
1337.41
279.961
62.0025
10.8889
8956.89
2479.86
594.122
133.1
23.245
8091.82
1307.29
271.03
59.8416
10.4989
8921.68
2445.24
583.349
130.405
22.7437
7746.04
1219.89
252.281
55.8498
9.81802
8517.79
2337.87
559.347
125.355
21.891
7004.24
1147.15
244.942
55.0962
9.7576
7163.81
2060.53
505.768
115.169
20.2972
7209.87
1161.67
245.088
54.7826
9.67092
7534.42
2162.76
526.22
118.889
20.8442
6934.3
1146.87
246.081
55.4928
9.83792
7054.46
2018.29
495.96
113.303
20.0246
6922.67
1140.51
244.581
55.187
9.77633
7080.15
2011.88
493.239
112.967
19.9349
32694.4
46230.5
45200.3
31753.8
18770.8
19733.1
27682.4
28868.1
21606.1
24173.7
34309.9
46696.1
43326.5
57294.4
28319.5
32231.8
22264
23751.6
12096.7
13250.5
4951.57
3321.48
979.718
776.903
867.186
769.794
917.456
4902.55
4911.73
3002.23
4240.31
4113.28
1823.85
2475.14
2278.62
1532.05
1754.09
1456.68
4404.86
2470.32
1641.66
1462.29
1819.76
1590.83
1271.22
1215.13
1157.2
1026.82
1357.66
1232.99
4577.88
2837.05
3237.52
2116.27
1773.56
2438.09
1298.5
1048.04
1417.69
10149.3
10413.9
10823
12411.9
20962.6
7420.91
8655.62
9642.26
11020.9
13003.4
2584.84
3712.61
4586.44
5192.03
5508.48
2063.55
2991.53
3720.52
4224
4482.53
2300.09
3326.01
4124.38
4669.96
4947.57
2046.1
2968.54
3692.53
4190.39
4444.51
2428.53
3502.43
4336.04
4907.85
5201.09
10386.5
10857.9
10915.3
11821.5
18949.7
10373.6
10657.7
10522
10961.3
12667.6
6952.22
8356.81
9163.97
9938.25
10823.7
9242.3
9842.58
9743.18
9802.06
10131.3
8954.1
9608.13
9462.12
9337.4
9403.76
4572.34
6105.1
7118.57
7790.49
8170.5
5923.51
7417.96
8269.21
8856.55
9270.26
5519.48
7009.48
7840.29
8327.37
8590.53
3922.53
5388.83
6407.72
7071
7415.23
4413.93
5914.97
6891.9
7502.79
7816.55
3750.71
5190.81
6200.37
6850.52
7178.42
9519.14
10302.1
10670.2
11850.8
19225.9
5920.16
7484.79
8532.19
9471.83
10393.9
4177.07
5698.41
6765.09
7499.29
7920.49
3762.28
5216.85
6277.57
7018.28
7436.96
4565.8
6127.74
7230.53
8057.89
8618.56
4062.21
5584.29
6702.61
7524.98
8029.26
3306.29
4659.98
5688.42
6421.18
6830.75
3175.33
4498.17
5496.76
6186.46
6553.37
3034.94
4315.16
5272.94
5912.84
6237.26
2707.51
3881.3
4777.86
5385.3
5694.88
3518.87
4921.46
5940.87
6622.92
6979.57
3218.43
4549.23
5542.84
6218.79
6573.25
9626.6
10175.8
10630.9
12096.5
20152.9
6549.38
7962.86
9038.18
10292.5
11836.6
7581.4
9024.8
9884.29
11177.3
13788.7
5198.22
6822.49
8023.69
9082.31
9962.96
4471.69
6055.32
7223.64
8141.98
8770.82
5854.04
7444.89
8565.49
9626.91
10685.2
3374.62
4748.2
5782.53
6511.36
6914.54
2758.95
3947.9
4857.9
5481.08
5803.77
3658.14
5095.96
6160.33
6913.38
7341.2
17903.3
11873.4
18456.9
13161.8
23955.9
34104.6
25014.1
33919.8
18995.9
20133.6
16279.2
19424
21630
20616.6
27449.3
22573.1
13765.1
12807.8
6743.16
5730.56
15014.9
13669.6
7751.95
6304.9
18547.5
20071.7
19052
17419.3
19374.3
12765.7
10734.9
12377.1
17541.8
17517.6
36362.9
38043.1
25497.8
26807.3
15443.2
12676.8
16898.8
11722.5
8180.92
7903.46
13406.9
14793.8
5613.69
6106.72
14774.3
16799.3
7011
7720.8
14128.8
19653.6
8209.77
12611.1
2875.88
6990.11
2142.17
4830.14
17743.9
20320.3
17677.6
20680.7
19430.1
19742.9
20438.9
20232.5
16078.9
20363.8
18232.9
20076
17386
20833.5
17504.4
21025.7
21167.2
20440.6
21519.7
20597.2
14264.2
20502.7
13557.4
20652.8
17819.9
20994.5
21657.6
30048
19398.1
24813
21710.2
32872
16483.6
18036.7
21617.7
28771.3
16034.4
16518.7
21795.3
28479.3
18372.8
19862.9
22958.2
33975.9
18515.2
18970.4
24589.7
34446.6
18292.1
17994.5
26497.7
34234.9
17961.1
18910
19096.5
20208.4
30181.9
18195.7
16931
20406.3
18506.6
34450.3
18981.2
19715.7
19462.9
20969
37319.6
11151.1
10240.3
10258.4
13197.3
12201.7
11221
10637.1
13578.2
13419.5
11687
11140.2
13903.6
17697.4
17110.8
16537.5
16165
18976.7
17833.6
15618.9
14114.5
11682.1
14527.2
18695.7
18581.8
19717.7
19929.5
18825.9
17780.3
16994.8
15128.8
11518.4
14070.7
21447.6
24193.2
22297.5
25813.8
20365.8
21336.1
20997.5
22598.4
20574.6
20821.5
20027.2
19789.4
22604
26522.3
22823.2
26890.6
20933.5
23443.5
21118.7
23764.9
20908.8
21117
21101.3
21352.9
17525.2
16536.3
11387.6
12503.7
17421.9
16034.2
11340.6
12515.1
17827.8
16618
11607.8
12608.8
17976.7
16570.7
11978.1
12671
9402.86
9544.49
4026.43
3716.45
10489.9
10161
4512.46
4325.36
10232.2
9612.83
5144.69
4974.92
16952
16509.6
16444.3
16563.1
16313.3
15868.2
12211.6
10972.6
6060.52
5023.12
18999.3
18306.7
20170
19456.8
15928.5
14833.6
11392.8
9839.8
5581.8
4226.91
21655.3
20657.3
26450.8
23188.5
24041.6
21499.7
32797.4
24832.4
19801.8
16353.8
21514.9
17115.7
19698.8
16646.7
21611.1
17343
20168.2
17945.8
18327.7
17119.7
20860.2
22032.5
25821.4
27141.2
28287.6
30072.9
21250.3
22956.7
19260.9
19392.9
23160
24772.6
13315.3
9711.23
13714.3
9935.56
13602.4
9620.08
13893.4
9779.01
13571.7
9477.78
13878.9
9973.65
13902.9
10280.5
14485.8
10163.7
17035.3
16632
18749.6
17062.8
19474.8
18726.9
21258.5
19410.2
18470.5
14664.2
17622.3
14525.2
20113.7
17331.7
21023.8
17426.9
22754.3
19797.7
23398.1
19945.1
19122.5
14797.5
19667.7
14832
12857.2
9061.49
12023.3
7641.38
12350.4
8787.67
11987.9
7559.53
13243.4
9362.65
12055.3
7672.47
13450.7
9599.45
11969.2
7608.22
12895.6
13233.9
9097.05
8343.31
13058.1
13358.3
8949.21
8271.44
13050.1
12834
8716.13
8174.49
15168.4
17821.3
16002.8
11887.7
8471.24
16562.7
15580.2
17485.2
12000
8173.6
18257.2
16282.2
14516.5
12155.8
7487.32
14068.9
15586.3
8374.45
9234.43
13901.9
15121.7
8287.65
9085.64
12943
13707.2
7891.62
8146.35
16463.4
15734.8
14994
14605.3
15669.4
16361.1
12258.4
13333.6
7632.05
7552.83
16674.7
15439.2
15154.2
14057.5
13731.4
13399.1
11604
11903.7
6992.3
7758.36
14824.6
12930.7
14882.1
12333.8
16625.1
14283.5
17136
14443
12996.6
11310.6
13090.5
12114.6
14976.2
12043.7
15013.9
11982.2
17444.9
14928.6
17549.4
15042.3
13066
10795.2
13016.6
10755
10470.6
9563.44
6721.32
7703.3
10767.3
10282.2
6886.08
8107.67
10595.1
9286.9
6624.94
7808.56
10715.1
9042.08
6752.68
7652.38
19032.5
19032.9
26844.1
22401.7
18178.1
18338
25706
21383.2
15905
16691.4
23546.7
19856.1
15381.6
14953
14349.9
14265.1
16811.1
17417.4
15846.7
15948.3
21585.9
18203.4
14600.6
14009.8
13636.6
13588.4
14147.2
14633.9
15447.6
15191.8
21217.4
16800
5980.18
3815.87
2749.86
2482.45
6248.31
3968.69
2842.08
2502.9
5852.62
3732.55
2697.5
2458.73
6182.6
3919.58
2803.56
2461.44
5617.22
3566.43
2603.4
2372.41
6076.05
3805.94
2750.91
2372.21
6229.36
3803.26
2704.96
2407.39
6139.43
3705.98
2613.38
2362.63
5388.59
3413.9
2532.27
2304.48
4089.88
2792.87
2195.13
2156.73
5039.56
3271.8
2447.45
2194.38
3975.28
2798.87
2176.9
2103.76
5579.1
3478.89
2539.77
2319.04
4122.9
2775.22
2169.87
2164.43
5605.89
3462.53
2490.54
2278.06
4065.09
2738.85
2119.49
2106.02
5416.11
3524.75
2572.69
2394.92
4459.22
3093.6
2339.73
2303.78
5245.8
3437.51
2520.1
2354.42
4341.47
3045.08
2313.45
2291.85
5005.51
3296.08
2447.92
2310.45
4255.73
2983.28
2279.47
2290.47
4502.76
3036.85
2305.75
2287.82
4066.49
2878.21
2220.05
2180.35
3794.39
2775.24
2141.11
2096.25
3023.54
2654.09
1893.66
518.764
773.788
2367.77
1733.42
591.878
3071.27
2654.33
1891.38
537.161
970.709
2374.53
1730.06
593.784
3154.21
2636.38
1868.81
508.877
1243.79
2365.89
1706.5
579.041
3125.66
2583.06
1866.41
537.054
1294.52
2320.28
1684.22
577.593
2842.81
2469.53
1849.2
615.58
724.592
2202.24
1644.35
572.903
2288.68
2219.33
1738.53
564.752
-399.862
1899.63
1547.24
553.823
2486.71
2325.96
1792.68
580.167
-206.248
2029.36
1590.64
559.624
2144.52
2135.41
1673.77
496.575
-576.62
1804.24
1492.6
528.58
2095.51
2080.92
1620.13
468.572
-498.461
1745.35
1447.62
510.555
2403.38
1858.27
1298.2
764.671
252.385
2347.55
1843.49
1293.98
763.226
252.004
2402.15
1850.93
1293.03
761.861
251.504
2337.52
1832.25
1286.6
759.301
250.785
2417.91
1844.55
1286.93
758.382
250.402
2326.56
1819.4
1277.89
754.662
249.354
2283.48
1794.14
1264.02
747.772
247.28
2225.52
1759.2
1244.29
737.883
244.295
2383.65
1824.57
1275.43
752.561
248.638
2521.1
1835.89
1273.46
750.488
247.923
2455.41
1845.28
1283.62
756.171
249.675
2580.88
1851.38
1280.63
753.881
248.919
2327.27
1800.17
1262.62
746.294
246.766
2486.07
1814.62
1261.97
744.864
246.248
2276.77
1768.31
1244.44
737.159
244.017
2444.35
1787.05
1246.22
736.99
243.896
2510.51
1879.72
1303.2
766.167
252.759
2687.27
1899
1306.69
767.116
252.992
2515.47
1875.13
1299.57
764.141
252.115
2688.77
1894.93
1303.81
765.553
252.499
2534.89
1868.82
1293.82
760.927
251.095
2696.27
1887
1298.34
762.638
251.582
2589.81
1866.23
1288.66
757.871
250.112
2707.53
1875.52
1291.6
759.129
250.47
2648.52
1861.93
1285.13
755.97
249.519
11089.3
14577.7
11154.4
14594.3
11295.6
14611.6
11130.3
14454.2
10428.5
13769.3
9714.57
10865.4
9726.77
11270.8
9785.56
10835.7
9975.16
11014
8501.65
1412.11
296.112
65.6456
11.5404
9153.96
2583.45
620.769
139.521
24.5285
8471.68
1389.88
290.343
64.2413
11.2739
9120.32
2553.16
612.911
137.345
23.9623
8374.63
1366.89
284.679
62.9024
11.0324
9027.11
2516.29
603.278
135.037
23.559
8153.74
1313.27
272.352
60.1776
10.5612
8813.6
2445.21
585.93
131.205
22.895
7708.54
1214.31
251.619
55.8004
9.81904
8355.24
2320.79
558.037
125.374
21.92
6984.03
1143.15
244.072
54.9181
9.72956
7131.49
2051.17
503.684
114.763
20.2358
7185.77
1156.26
244.018
54.5929
9.64443
7477
2148.83
523.765
118.513
20.799
6920.34
1144.36
245.529
55.3739
9.81831
7034.93
2012.75
494.636
113.023
19.9793
6917.64
1139.63
244.39
55.145
9.76926
7073.29
2010.04
492.793
112.869
19.9186
32239.8
45918.9
44126.6
30391.9
23790.9
28273.2
23014.8
28169.6
26600.5
42060.4
28176.3
43050.9
286.93
304.679
344.249
408.131
500.609
626.567
301.94
320.109
360.442
424.952
516.479
638.295
275.571
269.962
294.471
290.793
336.727
337.53
405.471
414.917
503.838
524.499
631.399
655.408
791.554
1001.37
1272.73
1631.59
2044.8
2341.85
793.499
984.025
1211
1465.2
1708.07
1865.49
768.334
1127.51
1417.27
1620.41
1725.04
815.643
1196.44
1503.34
1718.31
1828.96
921.127
1350.15
1695.24
1936.59
2060.72
1091.17
1597.37
2003.31
2286.61
2432.15
1336.61
1952.69
2444.52
2786.79
2962.47
1669.13
2430.38
3034.11
3453.11
3668.29
808.376
1185.95
1490.39
1703.71
1813.55
856.744
1256.29
1578.05
1803.29
1919.2
964.114
1412.42
1772.64
2024.4
2153.85
1135.55
1661.08
2081.92
2375.44
2526.24
1377.98
2011.09
2515.7
2866.85
3047.24
1698.89
2470.84
3082.28
3507.09
3725.8
737.971
1083.1
1361.67
1557.02
1657.66
722.964
1061.14
1334.14
1525.64
1624.28
788.401
1156.7
1453.67
1661.76
1768.89
778.571
1142.34
1435.72
1641.32
1747.17
901.131
1321.15
1659.2
1895.71
2017.36
903.292
1324.37
1663.31
1900.44
2022.4
1084.27
1587.74
1991.73
2273.72
2418.56
1109.49
1624.6
2037.84
2326.2
2474.26
1345.58
1966.49
2462.37
2807.34
2984.26
1400.57
2046.39
2561.71
2919.83
3103.32
1682.75
2451.57
3061.34
3483.83
3700.27
1746.59
2544
3175.5
3612.07
3835.21
2100.33
3041.22
3780.52
4293.3
4558.29
2638.83
3785.51
4675.96
5298.23
5626.98
3313.28
4678.23
5723.34
6473.68
6894.21
4157.75
5715.81
6892.9
7798.05
8377.43
5053.62
6691.34
7920.66
8980.84
9808.47
5669.24
7317.96
8558.73
9726.24
10753.8
2104.08
3044.19
3782.9
4296.61
4563.08
2594.4
3724.65
4604.39
5220.33
5545.73
3165.81
4494.6
5518.16
6247.47
6647.44
3785.84
5295.3
6446.66
7294.57
7790.02
4355.79
5993.41
7234.04
8188.53
8792.05
4716.97
6423.13
7713.37
8738.21
9420.63
289.967
313.899
360.112
431.353
532.105
667.314
305.041
329.506
376.486
448.117
547.151
676.385
278.653
273.163
303.887
300.615
353.057
354.689
429.693
440.695
537.053
559.545
675.927
703.547
840.846
1054.97
1323.43
1669.37
2064.7
2347.42
837.563
1030.56
1254.66
1499.85
1729.51
1872.61
776.492
1139.56
1432.55
1638.01
1743.85
840.471
1233.22
1550.02
1772.11
1886.49
963.896
1413.63
1775.99
2029.82
2160.52
1153.92
1690.86
2122.69
2424.85
2580.37
1422.05
2080.77
2609.06
2978.29
3168.36
1780.33
2598.68
3252.35
3708.97
3944.5
816.72
1198.31
1506.09
1721.82
1832.92
882.079
1293.89
1625.87
1858.49
1978.27
1007.43
1476.84
1854.75
2119.36
2255.58
1198.22
1754.64
2201.64
2514.31
2675.27
1461.27
2136.13
2676.61
3054.35
3248.98
1802.86
2628.23
3286.46
3746.55
3984.37
746.253
1095.34
1377.16
1574.84
1676.69
731.564
1073.83
1350.21
1544.11
1644.01
813.738
1194.18
1501.19
1716.47
1827.36
804.992
1181.4
1485.22
1698.29
1808.04
945.131
1386.39
1742.09
1991.32
2119.65
949.518
1392.89
1750.35
2000.82
2129.78
1149.7
1685.14
2116.01
2417.54
2572.72
1179.14
1728.35
2170.29
2479.55
2638.67
1435.71
2101.67
2636.11
3009.61
3201.76
1495.85
2189.71
2746.47
3135.42
3335.44
1804.42
2636.01
3300.91
3765.03
4004.01
1878.47
2744.75
3437.32
3920.38
4168.83
2236.19
3249.91
4055.02
4618.68
4911.68
2788.97
4021.57
4993.02
5680.05
6045.38
3459.56
4917.38
6055.08
6882.88
7348.95
4273.58
5918.18
7187.11
8173.87
8804.93
5122.05
6822.32
8120.48
9245.71
10119.3
5690.89
7362.59
8628.99
9821.7
10868.3
2225.29
3229.85
4026.5
4584.86
4875.86
2723.87
3926.31
4873.08
5542.07
5897.22
3289.38
4691.68
5786.19
6573.51
7006.92
3886.45
5460.87
6677.56
7580.88
8109.54
4420.05
6102.85
7390.31
8385.93
9015.28
4738.82
6461.2
7768.53
8808.7
9501.03
4932.21
3320.1
1043.36
832.123
941.321
830.983
987.504
4554.78
4414.68
2926.92
3679.34
1877.73
2433.78
1606.48
1766.23
1515.07
4248.81
2484.88
1716.07
1541.34
1882.95
1658.01
1334.22
1292.23
1252.5
1116.52
1444.62
1317.97
4521.1
2842.27
3203.02
2147.67
1826.19
2458.81
1369.55
1124.88
1492.72
10146.3
10468.4
10929.8
12587.8
21288.3
7435.12
8705.52
9731.96
11154.6
13179
2763.95
3996.14
4969.43
5654.93
6016.52
2215.99
3226.34
4030.14
4591.61
4882.07
2506.52
3648.1
4554.29
5185.16
5510.37
2215.17
3229.3
4036.83
4599.62
4889.54
2624.82
3811.35
4751.17
5407.52
5748.07
10142.6
11485.2
12379.9
14090.9
22558.2
10047.4
11618.6
12723.6
14262.5
16833.3
7037.54
9011.68
10492
11883.3
13186.9
8881.91
10887.9
12091.7
13334.5
14408.6
4830.43
6718.44
8145.05
9183.95
9784.48
6069.48
8113.55
9615.04
10786
11554.9
4195.64
5948.64
7292.8
8241.54
8755.15
4584.88
6447.72
7860.71
8862.59
9412.87
3975.81
5671.41
6978.15
7892
8376.95
9416.87
10683.3
11587.9
13298
21645
6091.05
7997.13
9453.17
10776.1
11966.3
4444.19
6237.3
7611.63
8617.35
9201.98
4015.07
5679.65
6969.11
7908.8
8446.51
4803.07
6621.48
8018.06
9110.42
9838.73
4279.15
5985.15
7305.84
8307.36
8921.84
3491.45
4969.77
6125.62
6966.3
7439.66
3402.33
4878.97
6034.85
6856.6
7300.13
3314.69
4783.14
5933.45
6735.02
7153.05
2962.5
4290.65
5337.51
6067.42
6446.65
3794.12
5420.6
6682.13
7572.44
8051.15
3472.61
4983.46
6163.94
6997.55
7443.48
9618.54
10346.6
10970.4
12644.2
21162.9
6604.53
8115.59
9301.84
10672.2
12318.1
7626.32
9329.86
10493.6
12104.2
15050.1
5319.15
7075.39
8428.51
9632.71
10616.7
4647.95
6391.24
7738.62
8820.09
9554.09
5999.37
7840.92
9265.29
10620.2
11892.1
3586.51
5108.94
6297.74
7158.01
7638.75
2979.01
4304.49
5348.65
6081.48
6466.57
3890.74
5508.97
6766.65
7687.07
8214.93
10342.1
9721.62
8645.02
7159.79
5173.52
2018.18
18248.5
18598.7
21148
21795.2
17936
19057.8
20260
19675
14941.6
18280.9
15600.2
18845.1
17913.5
16169.3
24899.3
17580.5
17796.3
20003.3
20418.7
17016.4
18120
19410.9
19015.6
14895.4
22074.4
15472.5
21997.6
18099.2
19613
26722.6
16846.6
16938.8
18559.9
18740.9
16354.9
17842.5
18285.5
18368
17104.9
19595.8
17860.8
19629.3
19674.1
21594
24128.6
16171.3
16281.9
17287.2
17316.4
16000
17721.6
17177
17524.5
16090.1
17199.2
16822.3
16793.7
18062.6
19513.8
20954.4
15456.5
15599.7
16443
16391.6
15769.9
17648.2
16474.5
17003.7
15290.6
14274.6
16050.5
13740
16685.5
16563.8
17414.8
15158.1
15342
15893.6
15811.6
15446.1
17015.5
16033.9
16484.1
14646.9
12339.8
15222.7
12120.5
15588.2
14655.9
15845.2
21137.2
20350.5
22131.3
23215.6
19669.1
19700.6
20669.1
19790
18733.1
13902
18717.2
13996.4
16644.6
15154.9
18190.5
20010.1
19447.9
20511.8
21217
19055.2
19244.5
19552.1
18818.4
17463.2
13526.7
17471.9
13636.7
15346.5
13698.7
16928.1
18553
18230.3
18590
18922.1
18021.5
18222.9
18126.3
17698.9
16703.7
13399.7
16525.7
13149.9
14848.6
12602.7
16787
17227.7
17053.3
17167.3
17305.6
16927.4
17071.3
17026
16696
15952
14042.8
15865.6
13728.9
14429.2
12818.4
17354.9
16606.5
16497.7
16421.3
16476.8
16229.4
16366
16411.1
16216.5
15914.6
15344.6
15861.9
15208.2
14683.7
13480.1
18173.7
16164.1
16061.8
16012.7
16041.7
15835.4
16148.1
15975.3
15910.9
15934.5
16167
15941.8
16088.1
14887.7
14114.3
19027.5
11228.2
6370.65
18519.1
12138.4
20217.8
14929.8
31761.4
39286.3
41741.3
50986.2
26999.1
23401.4
17133.9
13585.5
8333.43
5544.15
19224.2
19726.1
16527.8
19454.4
25970.9
23258.2
29895.7
24262.5
7914.87
5728.93
4380.29
3263.97
9664.29
7896.47
5860.94
4739.76
17481.2
18207.6
17917.6
15227.9
14038.8
10910.9
10953.5
12423.6
17668
17562.4
36953.2
38182.8
26258.7
27019.8
14896.8
12564.3
16276.7
11618.1
7571.1
7758.42
6033.26
8286.06
3123.43
3724.81
8435.83
11355
5021.32
5808.83
9390.05
15481
6493.9
10523.3
2482.19
6274.92
2064.2
4691.22
17445.7
21527.7
17924.5
21390.1
21368.2
21617.5
21680.8
21288.4
15205.9
20570.2
15696
20347.9
17619.7
21215.1
17593.3
21150
21811.3
20983.2
21711
20766
14025.5
20640.7
13527
20705.7
16976.9
19765.1
21447.3
29689.2
17962.7
22705.5
21237.9
32094.5
16107.3
17454.1
21547.3
28620.9
15940.7
16359.9
21786.6
28442.4
4824.04
6276.93
12289.1
21306.2
6137.61
6929.53
16173.3
24653.7
7718.56
7780.42
20656.3
27822.3
23982
25935.6
20118.4
19264.1
27459.8
26179.3
24589.6
20573.1
17718.7
31202.1
23818.8
23396
20701
20340.2
35938.9
1886.13
2271.19
3993.07
8979.41
2754.54
3088.98
5712.56
10308.3
4147.98
3502.98
7841.55
12001.2
26078.3
26050
23409.9
23297.8
19857.4
18440.1
14955.1
13344.9
10403
14242.9
23665.8
23088.8
23723.8
23553.5
20475.8
19349.2
16792.2
15131.9
11130.3
14495.1
23396.3
26423
23295.2
27018.8
22729.8
23656.7
22146.8
23751.3
21132.4
21531.7
20970.8
20929.1
23096.1
27111.5
22973.7
27067.1
21475.1
24005.8
21280.1
23929.8
21213.7
21484.5
21198.7
21464.1
17683.9
16824.7
11366.2
12588.3
17547
16360.3
11178.4
12570
17944.2
16791.3
11623.1
12672.7
18019.4
16627.4
11988.9
12696
1578.88
1098.38
776.687
942.7
669.791
627.526
2220.77
1382.8
1068.99
1892.19
1553.82
1363.15
2627.19
2275.98
2320.61
3336.73
2790.11
2536.27
25296
23258.3
21765.5
23148.2
21820.2
20674
16538.1
15616.4
15118.1
11114.3
9858.53
9338.57
5070.39
3845.43
3304.5
22784.2
21501.4
20299.3
23222.2
21571.3
20202
17085.4
15008.1
13810
11072.9
9091.49
8289.79
5404.17
3837.57
3126.34
26432.3
25984.4
28700
25859.5
29551.8
25895.5
35566.3
27180.2
20365.1
20908
20041.2
18773.4
23022.7
21783.9
22539.3
19305.1
22310.1
22237.1
20633.3
22182.7
27642
24683.6
27174.5
27555
29443.9
30412.3
22603.1
23437.3
20293.8
19688
24677.4
25283
16173.7
8509.69
15040.5
9452.09
16382.7
8572.28
14961.2
9367.66
16202.3
8623.89
14956.6
9778.14
14522
10243
14684.6
10157.2
20885.1
17972
20674.9
17892.3
23013.4
20878.8
23151.2
20613.7
20269
14974.8
21244.4
14825.8
21073
17774
21309.6
17561.1
23683.4
20407.2
23669
20130
20012.7
14992.4
19925.8
14892.3
13263.3
8648.12
11819.7
7269.52
12402.3
7722.39
11386.1
6764.82
13560.5
9210.16
11992.2
7499.89
13562.2
9562.63
11952.8
7551.43
2453.04
1223.9
4339.09
2059.18
2645.91
1563.62
4651.54
2587.6
3296.43
2442.15
5193.48
3566.27
13115.5
20255.3
9404.29
8983.28
6092.34
19920.8
13942.4
8145.78
8165.17
4939
20617.3
16317.1
13002.8
10059.4
5876.82
600.91
447.882
942.161
590.169
953.214
650.243
1589.32
1204.86
1761.85
1428.13
2567.66
2042.78
20383.3
20042.1
13933.4
13648.6
9082.39
9443.92
7620.48
7272.55
4163.82
3397.21
19037.6
17595
14884.6
13370.1
11655.2
10673.1
8808.04
8264.72
5181.55
5400.79
15167.1
12599.3
15209.6
12230.7
18069
15250.7
17963.6
14944.4
12841
10751
12488.3
10844.6
15181
11999.9
15077.5
11970.2
17860.5
15174.8
17673.6
15112.4
13052.8
10551.6
13026.1
10693.1
9972.49
8762.05
6237.89
6966.1
9627.83
8608.5
5925.01
6620.93
10397.1
8928.34
6401.41
7411.83
10658.3
8936.39
6675.86
7526.67
2056.61
1829.75
1522.05
9293.44
4907.52
4000.27
2006.34
2010.77
1795.61
10026.4
5812.03
4930.17
2733.97
3109.69
3205.98
10926.4
7212.63
6443.98
19290.3
18394.3
17669.8
13475.2
13359.9
13240.5
10039.9
10150.5
10249.7
8860.74
8735.93
8593.91
12287.1
8850.11
8037.95
16387.7
15459.5
14779.1
12502.7
11942
11592.5
10668.7
10158.7
9823.25
10571.4
9562.05
8931.67
14886.5
9968.21
9015.1
4492.85
2812.21
2129.54
2028.13
5142.37
3104.94
2265.93
2076.27
4504.67
2799.75
2131.51
2045.31
5259.45
3173.05
2307.7
2092.98
4466.77
2747.01
2112.86
2015.44
5359.61
3205.33
2337.93
2064.16
5810.35
3425.57
2421.65
2184.88
5998.69
3574.54
2517.93
2285.15
4787.79
2942.76
2194.4
2030.64
3693.29
2461
1961.21
1951.97
4096.05
2602.42
2012.83
1864.57
3325.98
2285.8
1868.55
1863.53
5246.74
3197.68
2326.49
2142.39
3909.1
2588.64
2021.8
2023.41
5502.64
3368.12
2416.8
2215.93
3997.55
2677.99
2068.57
2057.41
3204.98
2320.71
1896.76
1911.79
1742.07
1717.82
1609.01
1789.88
3198.29
2296.83
1887.11
1904.81
1842.92
1744.22
1618.17
1801.13
3265.84
2279.97
1882.9
1904.62
2175.53
1840.88
1655.25
1848.57
3172.25
2185.79
1824.47
1934.68
2453.72
1902.34
1696.52
1826.98
2829.48
2079.55
1760.16
1830.56
181.411
1218.9
1219.16
362.931
-1668.66
930.823
1047.46
395.766
440.812
1303.37
1249.22
385.152
-1327.4
1028.01
1075.97
405.374
925.388
1451.43
1301.46
384.771
-752.098
1187.69
1120.17
411.581
1507.54
1623.13
1366.82
420.596
-160.271
1360.23
1179.05
431.146
1867.54
1773.57
1446.08
499.136
-59.9711
1482.64
1232.87
448.102
2000.43
1928.34
1488.04
470.639
-516.798
1592.05
1327.9
477.028
1948.62
1859.75
1457.24
471.243
-535.773
1540.63
1281.14
460.079
2003.33
1976.8
1520.42
435.552
-608.567
1637.66
1363.35
480.993
2055.37
2030.36
1569.24
447.751
-500.9
1693.24
1405.61
494.776
2035.65
1631.67
1168.89
699.17
232.436
2011.58
1628.16
1169.62
699.995
232.726
2061.76
1644.69
1175.42
702.278
233.355
2042.19
1644.84
1178.41
704.283
234.013
2106.81
1662.38
1183.55
706.061
234.468
2077.26
1663.94
1188.35
709.141
235.477
2111.65
1686.14
1201.57
715.97
237.578
2162.25
1718.4
1220.58
725.782
240.598
2154.32
1683.88
1195.34
711.976
236.273
2301.85
1710.49
1203.04
714.919
237.092
2163.62
1678.29
1189.61
708.67
235.215
2297.96
1700.83
1196.71
711.574
236.044
2175.62
1703.51
1207.22
718.155
238.186
2343.99
1729.51
1213.86
720.497
238.821
2224.11
1734.75
1225.1
727.308
241.004
2395.42
1757.33
1229.35
728.41
241.268
2093.17
1639.83
1168.89
698.488
232.174
2203.05
1648.88
1169.17
698.103
232.025
2117.61
1650.11
1173.74
700.747
232.835
2222.65
1656.62
1172.87
699.84
232.536
2163.62
1666.43
1181.07
704.144
233.824
2262.25
1669.91
1179.19
702.822
233.405
2240.62
1685.35
1188.51
707.475
234.786
2309.68
1684.26
1186.44
706.286
234.405
2314.35
1695.15
1192.74
709.464
235.374
8867.36
13580.7
9400.43
13964.5
10124.7
14411.2
10663.1
14742.7
10327.8
14285.2
9710.82
10914.9
9672.13
11349.5
9795.16
10870.1
9980.85
11026.9
7846.35
1332.81
283.391
63.3178
11.1792
8710.97
2472.99
598.447
135.3
23.8794
7965.14
1335.99
282.245
62.8071
11.0561
8836.16
2475.4
596.622
134.211
23.48
8095.9
1337.46
279.969
62.0008
10.8881
8956.46
2479.65
594.045
133.075
23.2397
8091.87
1307.3
271.028
59.8393
10.4983
8921.71
2445.19
583.323
130.395
22.7413
7746.29
1219.92
252.284