/*--------------------------------*- C++ -*----------------------------------*\
| =========                 |                                                 |
| \\      /  F ield         | OpenFOAM: The Open Source CFD Toolbox           |
|  \\    /   O peration     | Version:  2306                                  |
|   \\  /    A nd           | Website:  www.openfoam.com                      |
|    \\/     M anipulation  |                                                 |
\*---------------------------------------------------------------------------*/
FoamFile
{
    version     2.0;
    format      ascii;
    arch        "LSB;label=32;scalar=64";
    class       volScalarField;
    location    "2.8";
    object      gradTx;
}
// * * * * * * * * * * * * * * * * * * * * * * * * * * * * * * * * * * * * * //

dimensions      [0 -1 0 1 0 0 0];

internalField   nonuniform List<scalar> 
5712
(
-6428.12
-8214.83
-15295.8
-22309.1
-22755.2
-39286.2
-17531.7
-44646.5
-14287.7
-31380.9
-21353.4
-32465.2
-19177.5
-25112.9
-8427.29
-9626.54
-14295.3
-16370.3
-18518.1
-18372
-14619.1
-18100.7
-21544.3
-19367.4
-5207.44
-3891.03
-6481.41
-4339.23
-12057.8
-9594.54
-20624.9
-14886.6
-16006.3
-16612.2
-17720.6
-16811.6
-6140.35
-4848.66
-37970.4
-50846.2
-24527.9
-30121.9
-51168.8
-66387.4
-26492.3
-30323.4
-28097.1
-39710.4
-24500.3
-32500.2
-14289.7
-23086.5
-2718.25
-914.19
-2867.62
-1031.65
-8214.15
-3307.72
-11299.9
-4146.82
-8003.61
-3076.47
-8574.48
-2744.89
-14644.8
-4652.97
-18909.6
-6370.57
-23339
-11552.8
-21362.6
-12675.6
-21985.7
-14221.2
-19327.3
-14586.7
-16721.9
-9926.79
-16699.9
-8473.81
-22032.7
-14136.6
-22078.4
-14279.7
-20399.7
-15462.7
-20644.5
-15546
-18069.4
-11495.5
-18719.9
-11788.8
-17040.1
-7345.13
-7841.05
-9499.74
-17113
-8015.87
-6809.99
-9580.87
-18055.1
-7324.96
-8912.19
-9599.31
-18956.4
-7509.37
-9707.93
-10047.1
-3523.71
-3842.1
-1178.08
-2275.12
-10349.7
-10930.3
-3966.38
-6958.76
-13253.2
-14768.1
-6301.14
-10679.1
-12217.3
-1209.64
-13315.7
-16269.4
-8745.83
-875.297
-7511.11
-11888.3
-19076.4
-12972.8
-9621.68
-11598.4
-10041.3
-8581.8
-13415.6
-3413.52
-2835.86
-1941.75
-1930.79
-9654.62
-8215.96
-5752.68
-5484.48
-12096.4
-10365.5
-7518.56
-6766.2
-5885.99
-7456.9
-12086.2
-12486.4
-13772.2
-12552.6
-15510.1
-13572.9
-10310.3
-8670.31
-8954
-9539.05
-11776.7
-9471.65
-10672.7
-7936.11
-9184.11
-6469.6
-10574.6
-6990.52
-10131.6
-4944.89
-8662.8
-9491.76
-12444.6
-16354.5
-13679.5
-19982
-6860.15
-7720.89
-8948.89
-3109.73
-7707.11
-14925.9
-7303.61
-15965.1
-13536.4
-24639.4
-13768.7
-26106.2
-5784.94
-12757.9
-5241.51
-13559.9
-7955.87
-6120.45
-10997.3
-4445.02
-8257.88
-1897.56
-9627.97
-985.235
-7620.5
-9075.47
-11511.1
-5363.92
-6284.87
-10668.1
-10168.5
-7011.54
-2286.35
-2035.2
-1851.61
-1636.38
-1515.7
-1373.74
-6803.3
-5686.31
-4996.64
-4325.3
-3553.99
-3131.63
-8437.91
-7393.96
-6882.12
-5224.75
-4356.47
-4157.43
-6640.73
-5983.44
-5876.17
-10976.3
-8538.26
-7274.1
-10218
-7736.9
-6371.9
-10751.9
-8661.25
-7610.85
-6511.61
-4399.29
-3485.94
-15801.7
-13915.7
-12211.9
-10047.8
-8530.43
-7218.23
-8800.81
-7004
-5721.44
-7289.96
-5398.92
-4259.41
-7335.07
-4167.14
-2423.97
-10209.9
-13874.9
-8046.35
-10440.4
-10896.6
-16056.7
-9707.43
-14187.2
-66.6908
-753.26
478.966
-113.795
-2974.86
-3386.82
-1235.98
-677.995
-724.377
-2450.05
-9328.79
-13657.3
-6637.6
-3596.65
-9719.59
-9641.01
-14875.5
-16373.7
568.542
4002.99
-7492.79
-7064.81
-7015.26
-5414.05
-1040.82
-561.946
-659.143
-258.603
-2046.95
-279.311
310.655
818.545
-9214.48
-2485.85
-6191.08
-1672.56
-8875.43
-2737.73
-10731.5
-3498.8
-8746.23
-11862.5
-8098.41
-11589.9
-13885.8
-14767.1
-13263.9
-14010.4
-5699.99
-9535.36
-6564.1
-9458.58
-8585.25
-11180.9
-9464.6
-11312.6
-13815.9
-13777
-14468.6
-13851.3
-5749.33
-9246.85
-6249.2
-9434.93
-93.8204
-1603.17
-7695.88
-5101.41
476.727
-1185.57
-7132.26
-4528.82
-532.471
-1837.37
-7880.81
-5544.66
-985.498
-2106.59
-7945.29
-5760.2
648.044
755.229
-197.164
-59.0887
2806.92
2863.05
128.617
265.022
435.716
1846.12
-1885.26
-1269.68
10199.9
9426.67
5494.91
4118.87
253.492
10368.2
10786.6
4288.22
6291.02
613.721
-10082.2
-8035.04
-7317.14
-7029.22
-4540.17
798.764
767.573
-9.34421
-137.776
2527.61
2580.61
-43.6652
-337.512
2526.02
3209.37
-934.396
-1351.73
5127.56
2402.45
8223.02
5254.38
3623.8
2810.66
4048.95
3601.79
-760.15
-1828.91
-3730.72
-2364.23
-1062.84
1037.39
-1146.97
696.457
-2012
-630.861
-2593.66
-3005.57
-5316.14
-4902.12
-10053.1
-6120.42
-8086.58
-8208.82
-12276
-9991.89
-8136.42
-4910.37
-4150.94
-4167.18
-11829.5
-5299.25
-13009.2
-5936.75
-13686.3
-10199
-14605.7
-10918.2
-9819.56
-4048.25
-10988.1
-4671
-6736.13
-5535.45
-5573.9
-8284.1
-4470.27
-5107.8
-4809.02
-7685.59
-7721.66
-5516.33
-6272.9
-9489.8
-9280.49
-5995.66
-7689.92
-9809.59
825.767
912.154
1039.78
-9.53736
315.007
361.719
3033.75
3313.39
3346.17
155.18
907.309
928.034
3806.89
4380.48
4548.43
-796.764
867.454
1213.58
1345.21
1171.48
873.253
3996.31
4152.56
3909.31
3270.66
3795.81
3771.73
4044.54
4486.99
4431.38
-1676.59
358.261
532.314
-3416.85
-1913.99
-973.398
1113.29
2370.71
3042.84
1018.69
2665.39
3387.03
372.608
2191.18
2722
-2771.05
535.496
939.617
20.0872
41.2508
59.463
91.7178
275.005
163.342
140.389
141.897
-15.0644
79.8347
200.124
324.051
442.339
301.265
343.979
387.032
-276.637
26.0841
282.648
572.152
141.723
245.054
334.607
394.836
26.2112
149.214
168.384
170.69
-236.23
-6.919
134.033
235.861
-1052.48
-217.774
123.978
366.241
-1644.59
-384.01
24.8006
617.445
-752.221
-96.8106
207.474
522.162
-1360.8
-294.105
6.25602
543.813
-1111.54
-257.929
146.432
451.703
-1837.65
-455.221
23.1442
723.838
-1234.26
-340.538
129.726
532.658
-1976
-520.316
-0.544509
757.126
-1.48587
23.0172
50.7572
113.822
29.4283
32.3087
32.418
104.769
47.9007
80.6492
154.176
305.469
148.837
111.439
98.5142
282.824
-477.406
-61.4397
171.748
523.897
-243.558
22.3702
132.535
499.849
-139.03
118.936
252.231
522.026
-67.2339
95.0386
116.233
504.315
-1185.83
-228.234
47.7255
703.747
82.8714
46.9121
36.782
78.4982
169.95
69.9451
38.12
36.457
162.55
110.74
83.9911
203.884
430.927
185.62
97.4307
94.4561
69.1435
120.947
117.878
336.253
534.664
259.922
146.948
149.19
-157.336
106.774
148.167
466.268
395.344
279.049
175.343
190.361
-649.852
3.82498
90.6005
453.239
70.705
238.866
165.846
197.311
-1377.96
-142.227
80.5945
526.442
-461.302
57.4786
109.473
186.719
-1084.38
-50.3146
93.1456
492.08
-301.735
137.818
142.846
200.843
-1648.78
-256.951
40.5329
570.107
-608.36
-22.9748
72.3343
174.54
-1851.68
-372.672
-15.9596
562.779
-746.744
-112.804
23.111
150.631
41.2423
19.0811
10.3736
6.44274
4.85724
54.7116
29.4772
17.088
10.8746
8.25058
98.381
44.4432
24.107
15.0528
11.4322
124.255
66.1356
38.3636
24.5282
18.6675
130.307
55.6498
29.8147
18.5986
14.1611
167.524
87.7903
51.0278
32.796
25.0429
88.2889
45.0927
26.0893
16.7962
12.8325
61.8754
26.209
13.924
8.72513
6.60419
131.905
57.0688
31.083
19.5822
14.8524
62.7038
23.2885
11.9737
7.39279
5.56915
139.141
66.5667
37.8845
24.2162
18.4718
59.1816
23.1837
12.2769
7.63586
5.74488
100.979
37.1247
18.7846
11.5661
8.72429
59.2774
20.7696
10.4694
6.45785
4.87287
86.5574
23.4196
9.56766
5.40045
3.93406
47.7047
11.0162
4.10543
2.22686
1.59355
34.2491
14.3687
7.54174
4.59658
3.43958
24.757
11.4161
6.25874
3.86508
2.90176
83.6903
36.1651
19.4522
12.0156
9.06468
63.9806
30.1561
16.8102
10.4705
7.88619
117.159
44.525
22.9924
14.0097
10.5407
87.1406
41.7214
23.4967
14.6844
11.1341
106.603
51.2773
29.3619
18.7033
14.2878
59.6462
31.9008
18.5471
11.7295
8.97635
55.5785
28.2395
16.516
10.6229
8.1144
-357.41
-468.88
-819.199
-1152.87
-889.923
-1453.02
-404.478
-1209.33
225.004
-316.425
-768.852
-1236.85
72.9392
1.21623
-1136.08
-1773.52
-1412.45
-2007.29
-581.262
-134.275
-30.1329
-6.63233
-1.65721
-206.761
-89.147
-12.7663
-3.32844
-1.41713
-1786.12
-410.868
-92.5219
-20.2641
-5.06986
-497.726
-131.366
-31.4696
-6.58074
-1.74912
-3008.35
-693.561
-156.578
-34.4005
-8.5869
-784.186
-220.902
-52.9164
-12.1433
-3.02514
-4053.05
-937.26
-212.425
-46.802
-11.6942
-909.946
-277.016
-68.5297
-15.9183
-3.96084
-5088.55
-1188.44
-271.182
-60.0364
-15.0607
-999.28
-334.744
-85.3443
-20.1023
-5.06222
-6085.22
-1465.61
-339.044
-75.6786
-19.0635
-1509.03
-459.731
-113.082
-25.8627
-6.44746
-5643.4
-1353.76
-311.773
-69.3072
-17.4058
-1189.62
-392.273
-99.2144
-23.1139
-5.76685
-6294.49
-1518.98
-352.111
-78.7214
-19.8596
-1699.16
-502.178
-121.821
-27.4903
-6.83766
-6570.98
-1572.81
-365.163
-81.6099
-20.5773
-1757.91
-521.718
-127.751
-26.7851
-7.05196
-518.949
-6762.28
-6174.24
-2232.94
1590.36
2725.46
7614.12
11136.8
1673.95
8157.95
-1576.01
2552.81
2450.81
4827.19
9079.86
12853.4
13760.7
17263.8
5614.84
7271.88
-19687.3
-14288.3
-4919.57
-3908.96
-2818.35
-4042.46
-3724.06
-12201.2
-11859.3
-10065.5
-11044.7
-9219.87
-6581.62
-8506
-5723.68
-4845.31
-5922.04
-4066.44
-19727.2
-10387.1
-3758.06
-6379.82
-8549.32
-6005.23
-6608.07
-4935.41
-3039.76
-4305.4
-4531.9
-4889.63
-19385.2
-12792.2
-12196.5
-8851.52
-8852.18
-9246.9
-4082.14
-5407.42
-6765.61
-14240.7
-12562.5
-10845.2
-10382.7
-9294.57
-9352.61
-6487.81
-5165.77
-4102.87
-2186.72
-4353.07
-3620.32
-2722.46
-1702.08
-583.636
-3495.61
-2931.31
-2209.73
-1375.31
-467.598
-2505.92
-2086.12
-1560.13
-964.324
-326.461
-3618.15
-3033.81
-2283.27
-1417
-480.437
-3310.07
-2757.51
-2067.01
-1282.06
-435.382
-7942.87
-6206.04
-5016.96
-4846.23
-5450.35
-6553.19
-4910.13
-3600.23
-3085.2
-2207.83
-6301.85
-3800.75
-2689.04
-1936.97
-963.788
-5703.45
-3891.07
-2641.78
-1979.01
-1195.78
-4312.69
-2711.03
-1712.84
-1218.86
-609.964
-5222.12
-3914.58
-2719.61
-1637.59
-567.54
-5791.22
-3717.77
-2448.9
-1487.26
-566.573
-3754.28
-2231.88
-1336.79
-727.016
-247.694
-4000.03
-3095.55
-2187.9
-1314.77
-445.312
-4733.52
-3539.67
-2420.12
-1414.96
-471.488
-3391.56
-2644.4
-1872.29
-1119.1
-374.938
-13203.1
-10249.4
-8516.04
-7872.88
-7819.25
-7692.44
-5621.75
-4181.48
-2905.86
-1345.61
-3135.29
-2462.21
-1772.9
-1088.05
-377.136
-5420.45
-4350.19
-3205.7
-2010.38
-710.304
-7038.83
-5565.76
-4140.75
-2701.18
-1037.88
-5129.11
-4154.1
-3101.17
-1973.56
-705.928
-5738.39
-4707.38
-3529.41
-2230.79
-782.968
-4304.93
-3530.88
-2629.56
-1639.62
-564.59
-2624.82
-2119
-1544.33
-939.937
-316.815
-3795.89
-3134.13
-2330.51
-1437.85
-487.381
-3862.8
-3086.42
-2240.58
-1369.4
-466.494
-4243.59
-3458.06
-2556.43
-1583.13
-542.678
-13663.2
-11536.7
-9895.81
-9143.26
-8318.96
-8950.38
-6484.08
-5104.33
-3899.94
-2055.04
-9083.77
-7291.21
-5674.63
-4318.98
-2164.6
-7004.63
-5364.1
-4100.61
-2848.61
-1187.74
-7420.51
-5977.47
-4512.54
-2966.75
-1130.35
-7258.39
-5512.3
-4186.39
-2895.96
-1193.62
-3514.99
-2854.63
-2119.87
-1330.83
-465.741
-4774.02
-3954.07
-2955.92
-1835.69
-625.607
-5840.23
-4758.84
-3547.53
-2233.68
-781.861
-5406.84
-10989.9
-11489.2
-31381.6
-11353.9
-42085
-6180.35
-14967.9
-11368.8
-8795.73
-18822.1
-15717.5
-11377.7
-10748.7
-21161.3
-16806.4
-3975.08
-2948.86
-7673.51
-5263.84
-8913.11
-6711.59
-23850.9
-17597.2
-14703.2
-11188.2
-15105.4
-8995.34
-1169.4
-3625.53
-39161.3
-51325.8
-23708.2
-29977.1
-51848.1
-66657.5
-25589.6
-30104.9
-29143
-40245.8
-23759.8
-32441.9
-15709.2
-23755.2
-1891.47
-497.865
-3315.72
-1130.36
-6433.99
-2865.12
-13035.4
-4701.8
-2839.67
-1605.2
-7094.87
-2227.15
-14675.4
-4605.13
-19083.6
-6419.65
-16118.9
-8339.18
-18520.9
-11027.7
-14762
-10560.4
-16510.4
-12832.4
-14732.6
-8624.23
-11677.5
-6014.72
-20932.7
-13391.7
-21803.1
-14075.5
-19279.5
-14700.2
-20345.4
-15338.1
-17335.2
-10891
-18545.8
-11621.6
-16084.5
-7080.16
-6990.56
-9187.38
-14403.3
-7232.21
-5225.94
-9011.13
-17797.6
-7259.55
-8515.53
-9445.44
-18925.3
-7504.67
-9595.94
-10002
-1089.34
-976.06
-261.652
-1146.48
-4423.1
-4563.16
-2753.93
-5440.08
-2460.9
-3068.76
-4264.49
-8048.81
-11910.1
-9622.36
-9144.57
-11362.4
-7443.14
-7591.01
-8077.68
-6709.41
-13143
-11307.2
-11326.1
-9414.89
-6486.57
-5533.04
-12144.2
-1051.23
-789.959
-583.772
-654.396
-4109.02
-3270.63
-3464.1
-3052.59
-578.498
520.583
-4088.63
-3210.11
-10096.9
-10731.7
-9414.65
-8617.41
-6935.18
-5042.01
-9044.97
-7215.93
-8015.14
-6281.02
-11453.4
-11695.1
-9748.42
-7680.61
-7174.09
-4917.79
-6289.81
-4017.81
-9332.28
-5701.39
-9188.53
-5087.39
-8186.31
-9357.82
-12945.7
-17254.4
-13652
-19940.6
-6236.33
-7443.43
-7581.44
-2908.27
-7536.36
-14769.9
-7263.89
-15907.5
-13479.4
-24726.7
-13746.9
-26084.3
-5551.09
-12567.2
-5186.27
-13502.1
-7488.28
-5933.8
-10801
-4403.42
-7230.16
-1825.41
-9299.35
-1251.37
-7434
-8951.4
-11422.5
-5333.38
-6235.97
-10628.4
-10145
-6996.54
-780.79
-726.448
-525.553
-607.535
-2496.42
-1824.5
-2249.6
-2046.17
1074.93
604.611
-2638.33
-2936.47
-10634.2
-10111
-7626.36
-6612.01
-4007.64
-3392.91
-5658.94
-4680.13
-5279.79
-3862.63
-18202.3
-15995.1
-7891.22
-6767.64
-5941.42
-4570.35
-4877.49
-3175
-5163.62
-2280.64
-5576.95
-9163.9
-4887.8
-9251.39
-8197.21
-10274.4
-9174.12
-12517.1
-1000.44
-740.869
-788.024
-678.26
-3639.82
-2633.91
-2989.65
-1722.49
-1470
-1747.01
-8330.14
-8965.64
-4692.59
-4236.07
-9234.2
-9536.65
-14082.5
-16154.9
295.561
3795.08
-7349.35
-7105.34
-6940.44
-5474.16
-1092.34
-997.754
-1177.64
-976.316
-1818.98
-1287.13
-694.738
-607.718
-8164.22
-3905.59
-6931.32
-3277.85
-9203.38
-3703.9
-10875.1
-3896.16
-5454.27
-10270.8
-7012.46
-10749.9
-8607.5
-11555.8
-11243.2
-12523.2
-5341.32
-9370.12
-4859.94
-9327.73
-8155.23
-10841.9
-9339.39
-11223.9
-12972.6
-13158.6
-14229
-13684.2
-5690.64
-9213.13
-6247.66
-9436.48
-740.337
-2478.33
-8150.39
-5793.81
-722.608
-2563.46
-8067.62
-5546.46
-1018.22
-2455.38
-8137.55
-5970.98
-1186.61
-2356.09
-8022.99
-5907.63
-1099.49
-1215.22
-1041.57
-1141.26
-2176.44
-2244.58
-1543.74
-1697.84
-8484.23
-7861.34
-4128.53
-4213.28
-3831.72
-5253.25
-4170.3
-496.502
-2051.39
-1366.98
-1454.14
-3659.55
2500.78
-1125.51
-13662.6
-11751.4
-10787.8
-9544.34
-6220.43
-1227.59
-1118.02
-1297.82
-1644.01
-2238.53
-1770.41
-2191.54
-2922.01
-8242.58
-8187.38
-4669.56
-6095.32
-5062.65
-6718.21
-3234.52
-5165.84
-4968.03
-5423.26
-1349.25
-1705.04
-3271.43
-4846.31
-9651.54
-7957.83
-7720.63
-5700.09
-6879.44
-4947.1
-6272.48
-4652.19
-4854.94
-5395.7
-8475.11
-8400.64
-11376.1
-7395.01
-10421.9
-11220.9
-13037.9
-11002.6
-9734.23
-6153.24
-7214.78
-7241.69
-12356.6
-6095.04
-13147
-6131.76
-13904.3
-10856.2
-14650.7
-11060.7
-10561.8
-4830.94
-11198.7
-4880.9
-8264.9
-6672.38
-6942.77
-9573.39
-7089.69
-7603.28
-6775.6
-9764.07
-8525.88
-6262.27
-7054.92
-10315.5
-9532.69
-6231.44
-7943.62
-10047.1
-916.246
-785.916
-1191.77
-861.338
-1496.4
-1755.43
-1784.12
-1274.36
-8042.16
-7039.34
-4116
-1821.66
-7895.76
-7504.35
-6218.33
-5593.58
-5264.21
-4499.32
-1995.49
-2015.8
-4623.78
-2056.01
-8654.55
-7419.88
-4961.31
-3894.85
-3933.93
-2410.57
-3005.59
-1253.36
-4841.25
-132.218
-255.68
-118.793
-40.8924
25.9627
-240.772
-153.078
-60.5838
9.22078
-690.597
-309.141
-21.0809
191.753
-624.619
-366.556
-70.2392
113.442
-1128.4
-457.024
17.879
440.032
-1112.8
-554.028
-198.923
9.95176
-761.527
-373.143
-184.275
-60.2698
-582.913
-244.417
-27.5667
126.601
-1684.93
-597.562
-133.509
169.779
-2015.82
-577.117
-86.0055
592.467
-1620.18
-575.427
-94.9253
300.607
-1831.69
-519.584
-113.6
543.976
-1572.14
-549.848
-42.5626
335.451
-2088.6
-594.459
-65.7652
686.434
-1423.69
-464.861
47.7513
480.766
-2067.98
-573.629
-35.1251
742.869
-237.46
-97.3222
-15.3396
81.5169
-204.862
-74.3283
-28.7153
78.8332
-612.316
-254.481
-27.8273
208.506
-514.649
-195.952
-77.3883
202.963
-1210.82
-424.327
-12.4195
457.364
-1101.37
-370.281
-86.2168
422
-1341.91
-503.622
-102.238
333.005
-1016.33
-351.509
-116.896
471.609
-1847.23
-519.238
-98.8166
745.46
-147.016
-55.5533
-17.3621
50.3286
-65.6489
-38.7964
-18.8272
-0.781061
-443.696
-160.692
-67.5586
121.846
-218.873
-116.191
-64.1874
-10.6336
-789.252
-267.451
-102.483
220.809
-450.872
-204.175
-101.354
-10.2543
-1202.34
-385.684
-131.761
332.661
-796.777
-301.747
-135.138
-4.93741
-1588.34
-463.848
-196.912
288.781
-1081.03
-365.759
-174.952
-26.7457
-2131.25
-602.36
-210.12
361.711
-1078.69
-340.424
-142.773
15.3754
-2051.05
-591.081
-240.829
302.748
-1190.39
-379.153
-168.306
-11.9014
-2107.14
-551.545
-149.11
465.649
-969.085
-273.926
-88.6069
70.1273
-2002.46
-472.414
-80.9027
526.926
-860.22
-194.756
-30.0072
116.479
-8.85191
-13.4241
-9.87205
-6.84964
-5.36021
-34.6403
-25.8752
-16.9929
-11.4411
-8.89366
-17.94
-30.6217
-22.5526
-15.5655
-12.1004
-74.8371
-57.2552
-37.649
-25.2593
-19.5887
-12.4483
-36.8784
-27.6613
-19.1102
-14.8211
-97.4931
-75.295
-49.2454
-32.8579
-25.4043
-47.1986
-37.7421
-24.8004
-16.5269
-12.777
-7.64985
-16.3752
-12.2811
-8.46026
-6.62723
-24.6067
-39.9552
-28.6803
-19.5667
-15.2344
4.09742
-13.579
-10.7947
-7.53002
-5.90165
-59.9428
-54.6082
-36.3083
-24.3007
-18.7952
-3.13364
-15.5114
-11.5285
-7.94766
-6.22787
10.6149
-19.4989
-16.2089
-11.3861
-8.92875
8.24486
-10.9681
-9.08263
-6.35578
-4.98335
45.2166
-2.58479
-6.56979
-5.23375
-4.29681
30.5902
0.178239
-2.62858
-2.21747
-1.856
-1.45333
-9.46465
-7.33707
-5.17132
-4.06752
-8.19944
-9.20972
-6.4094
-4.41618
-3.45615
-13.6452
-26.5324
-19.3203
-13.3778
-10.4408
-27.9525
-26.0959
-17.5405
-11.9536
-9.32468
6.13378
-28.8475
-22.5545
-15.8489
-12.401
-45.5404
-37.9763
-24.9812
-16.9413
-13.1378
-54.641
-45.2565
-29.4104
-19.666
-15.17
-49.6022
-31.7286
-19.9319
-13.3455
-10.2645
-37.5764
-26.162
-16.4688
-10.8955
-8.40497
-67.3689
-202.321
-129.538
-517.816
-88.1054
-717.612
182.285
-656.201
439.158
-131.601
-772.638
-1245.95
63.4741
-98.067
-1140.87
-1772.77
-1414.19
-2006.46
-566.397
-133.473
-30.1406
-6.6507
-1.66342
-152.97
-82.7896
-11.5725
-3.16367
-1.40635
-1750.79
-409.126
-92.6204
-20.3267
-5.08979
-368.564
-111.576
-28.4541
-6.11555
-1.67352
-2954.1
-689.854
-156.498
-34.455
-8.60873
-637.018
-197.729
-49.2757
-11.5812
-2.92826
-3988.66
-930.898
-211.833
-46.7653
-11.6981
-801.774
-258.297
-65.3657
-15.3945
-3.86474
-5034.61
-1181.07
-270.151
-59.8955
-15.0404
-958.08
-324.495
-83.2624
-19.7157
-4.98558
-6063.68
-1460.59
-337.992
-75.4755
-19.0207
-1509.04
-458.675
-112.71
-25.7709
-6.42458
-5612.36
-1347.2
-310.546
-69.0925
-17.3653
-1186.9
-388.386
-98.139
-22.881
-5.71604
-6280.96
-1515.72
-351.394
-78.5768
-19.8276
-1698.73
-501.807
-121.691
-27.4588
-6.82973
-6566.39
-1571.71
-364.913
-81.5584
-20.5659
-1757.72
-521.626
-127.722
-26.7795
-7.05036
-544.545
-6692.66
-5935
-2200.44
-1555.24
-938.231
-3666.34
-2688.97
-6280.31
-5872.7
-2981.72
-2254.77
-422.735
-644.241
-1099.29
-1772.69
-2633.75
-3592.22
-304.023
-649.674
-1344.52
-2325.44
-3472.35
-4613.45
-322.293
-148.623
-550.908
-377.829
-1009.38
-840.723
-1673.42
-1558.91
-2385.04
-2302.55
-3089.28
-2804.25
-4398.41
-4907.14
-5270.68
-7735.7
-8576.54
-9397.93
-5533.82
-6017.77
-5925.2
-5352.63
-4539.83
-3940.32
-382.049
-323.823
-246.082
-153.701
-52.2564
-581.907
-492.902
-374.337
-233.702
-79.4371
-992.289
-839.905
-637.458
-397.799
-135.19
-1598.64
-1351.79
-1025.1
-639.393
-217.256
-2371.66
-2002.44
-1516.8
-945.581
-321.268
-3226.66
-2717.85
-2055.53
-1280.97
-435.371
-274.65
-232.7
-176.769
-110.376
-37.5186
-586.557
-496.607
-376.991
-235.289
-79.9647
-1213.15
-1026.43
-778.764
-485.894
-165.119
-2096.22
-1771.84
-1343.31
-837.832
-284.697
-3125.41
-2637.9
-1997.93
-1245.71
-423.331
-4142.91
-3489.32
-2639.59
-1645.71
-559.571
-291.36
-247.008
-187.745
-117.283
-39.8815
-134.362
-113.91
-86.5798
-54.085
-18.3914
-497.761
-421.75
-320.383
-200.054
-68.0092
-341.418
-289.318
-219.803
-137.258
-46.6621
-911.465
-771.782
-585.933
-365.712
-124.297
-759.287
-643.031
-488.245
-304.756
-103.579
-1509.7
-1277.04
-968.641
-604.208
-205.296
-1406.47
-1189.74
-902.355
-562.786
-191.2
-2148.49
-1814.48
-1374.42
-856.618
-290.965
-2074.02
-1751.19
-1325.93
-825.975
-280.453
-2775.07
-2336.9
-1766.25
-1099.69
-373.476
-2518.26
-2119.13
-1599.74
-994.611
-337.435
-3933.76
-3301.08
-2492.16
-1554.04
-529.171
-4354.12
-3631.62
-2737.01
-1712.68
-586.933
-4606.47
-3803.26
-2864.89
-1812.43
-633.23
-6558.8
-5328.35
-4037.38
-2637.54
-978.556
-6880.66
-5453.45
-4188.33
-2901.4
-1219.37
-7220.64
-5625.73
-4366.05
-3156.34
-1442.32
-4951.83
-4158.21
-3141.6
-1960.18
-667.605
-5355.32
-4478.14
-3379.68
-2113.99
-722.969
-5226.12
-4343.43
-3276.73
-2062.06
-712.095
-4646.55
-3825.14
-2890.33
-1845.23
-652.849
-3815.99
-3088.28
-2347.24
-1547.69
-581.579
-3194.65
-2538.4
-1943
-1328.01
-532.36
-445.127
-712.521
-1216.6
-1943.51
-2865.42
-3871.92
-335.681
-745.982
-1507.67
-2553.85
-3751.45
-4904.73
-343.949
-167.42
-617.185
-436.348
-1124.5
-945.593
-1844.86
-1720
-2631.22
-2577.53
-3404.03
-3216.63
-4686.58
-5172.45
-5512.64
-7880.07
-8639.06
-9417.16
-5778.88
-6161.12
-5946.33
-5275.16
-4433.54
-3892.16
-402.399
-341.191
-259.376
-162.054
-55.1055
-644.01
-545.952
-414.985
-259.261
-88.1603
-1099.15
-931.37
-707.688
-442.039
-150.303
-1754.69
-1485.83
-1128.41
-704.665
-239.592
-2584.21
-2185.96
-1659
-1035.82
-352.227
-3485.24
-2943.14
-2231.71
-1393.63
-474.19
-303.418
-257.242
-195.546
-122.169
-41.5415
-674.123
-571.383
-434.263
-271.292
-92.2494
-1361.75
-1153.6
-876.393
-547.384
-186.123
-2304.86
-1951.03
-1481.39
-925.069
-314.548
-3381.48
-2859.03
-2169.28
-1354.47
-460.648
-4412.13
-3723.85
-2822.99
-1762.99
-599.986
-311.019
-263.77
-200.562
-125.329
-42.6247
-151.417
-128.438
-97.6779
-61.0467
-20.7643
-557.996
-473.159
-359.735
-224.78
-76.4444
-394.565
-334.64
-254.466
-159.022
-54.0835
-1016.28
-861.428
-654.712
-409.009
-139.082
-854.737
-724.647
-550.844
-344.152
-117.031
-1666.3
-1411.54
-1072.28
-669.684
-227.699
-1553.82
-1316.5
-1000.2
-624.683
-212.395
-2374.31
-2009.43
-1525.43
-952.429
-323.828
-2326.49
-1969.38
-1495.15
-933.442
-317.334
-3066.12
-2590.58
-1964.67
-1226.55
-417.178
-2898.9
-2450.18
-1858.12
-1159.54
-394.193
-4203.81
-3540.07
-2681.99
-1676.98
-571.857
-4608.91
-3863.1
-2925.58
-1837.39
-630.836
-4848.28
-4031.48
-3057.41
-1943.61
-680.523
-6729.04
-5509.76
-4206.69
-2763.67
-1028.22
-6978.94
-5570.24
-4307.13
-2998.83
-1263.38
-7257.27
-5670.86
-4413.53
-3197.05
-1461.74
-5181.58
-4361.65
-3303.33
-2065.02
-704.027
-5494.97
-4607.02
-3486.27
-2185.32
-748.25
-5256.3
-4380.27
-3314.07
-2090.77
-723.16
-4587.83
-3786.23
-2869.97
-1838.34
-652.254
-3729.48
-3023.05
-2304.86
-1526.62
-576.597
-3155.03
-2507.83
-1922.56
-1317.56
-529.851
-19623.1
-14342.5
-5292.25
-4315.83
-3278.87
-4627.4
-4207.98
-12937
-14614.6
-11583.9
-13369.6
-8032.12
-11377.2
-6169.4
-6430.68
-4717.94
-20376
-11362.1
-4440.24
-7267.01
-9392.92
-6502.5
-7258.57
-5505.67
-3400
-4952.9
-5432.88
-5585.31
-19262.1
-12985
-12833.6
-9237.93
-9285.16
-9765.28
-4746.48
-6040.84
-7387.34
-14256.6
-12641.2
-10966.8
-10549.7
-9453.75
-9448.15
-6588.38
-5264.43
-4186.19
-2223.63
-4713.15
-3949.35
-2991.74
-1880.72
-646.647
-3876.11
-3267.21
-2475.8
-1547.17
-527.157
-2941.75
-2475.87
-1872.59
-1167.95
-397.359
-4163.46
-3513.57
-2662.03
-1660.97
-564.83
-3769.63
-3169.82
-2398.37
-1498.35
-510.754
-9640.88
-8195.22
-6945.97
-6484.26
-6661.63
-11052.8
-9710.01
-8019.25
-6543.64
-3965.13
-8409.94
-5966.13
-4577.9
-3267.48
-1455.28
-10067
-8446.29
-6731.14
-5024.93
-2466.16
-6826.9
-5511.97
-4100.6
-2583.28
-905.972
-8976.44
-6734.32
-4971.79
-3194.79
-1182.47
-5367.78
-4405.2
-3292.6
-2061.04
-710.915
-5574.24
-4561.5
-3404.88
-2132.29
-736.654
-4138.84
-3416.6
-2557.37
-1595.74
-546.785
-14566.1
-11897.8
-10174.6
-9320.61
-8860.7
-8908.5
-6898.48
-5333.28
-3741.89
-1682.7
-3855.82
-3166.24
-2376.56
-1500.39
-524.992
-6335.61
-5232.48
-3957.74
-2524.2
-895.741
-7973.11
-6509.24
-4974.19
-3290.94
-1261.43
-5651.22
-4665.59
-3544.02
-2280.87
-818.576
-6381.91
-5308.15
-4030.5
-2568.76
-903.982
-4870.56
-4060.14
-3070.85
-1936.07
-669.913
-3014.18
-2510.24
-1887.63
-1177.58
-402.233
-4423.24
-3708.72
-2800.96
-1749.27
-596.799
-4777.72
-3956.49
-2972.82
-1863.25
-641.982
-4938.84
-4112.32
-3103.72
-1951.13
-673.343
-13803.4
-11839.3
-10303.3
-9615.41
-8799.54
-9243.6
-6795.53
-5404.37
-4144.06
-2167.04
-10013.9
-8294.26
-6633.54
-5075.84
-2513.28
-7464.08
-5846.25
-4543.81
-3179.15
-1317.86
-7912.54
-6487.29
-4975.01
-3302.78
-1260.91
-7886.36
-6161.99
-4783.6
-3338.77
-1370.71
-4170.06
-3463.6
-2624.89
-1669.21
-586.109
-5386
-4512.97
-3412.47
-2137.54
-731.631
-6476.29
-5370.11
-4068.71
-2590.29
-910.491
-503.215
-1424.24
-2248.69
-3016.73
-3741.3
-4415.83
-2558.14
-6880.42
-6561.73
-2513.4
-8764.98
-7351.04
-8802.53
-9764.21
-2313.98
-1495.11
-5374.36
-3125.85
-10264.9
-7255.69
202.097
-2079.53
-5746.99
-5408.29
-2029.86
-7476.31
-6018.24
-7405.84
-8358.9
-1917.15
-888.698
-4616.31
-1650.27
-8540.68
-4360.89
1464.87
-1525.88
-4390.6
-4124.69
-1496.2
-5934.7
-3654.21
-6041.58
-6715.73
-1450.98
-808.509
-3283.17
-1711.97
-6855.02
-1783.82
1599.62
-1131.18
-3418.59
-3282.81
-1151.12
-4572.7
-2260.1
-5052.18
-5964.18
-1097.55
-847.969
-2414.32
-1726.63
-6063.72
-406.61
1201.76
-919.774
-2914.7
-2845.78
-977.061
-3700.2
-1887.8
-4554.69
-5805.53
-873.861
-921.191
-1749.58
-1656.46
-5309.35
-188.913
115.932
-816.042
-2614.06
-2623.66
-888.919
-3439.37
-2137.45
-4233.97
-5558.59
-679.369
-723.154
-1457.99
-1625.12
-5224
-954.4
-462.601
-1384.41
-3395.03
-4886.88
-1886.95
-5503.53
-9591.34
-7182.98
-10367.4
-1026.8
-743.563
-3914.66
-2467.04
-1273.59
-9292.79
-4870.35
-1293.94
-3180.34
-4315.43
-1647.73
-5113.24
-8712.31
-6516.62
-8877.32
-1056.7
-667.256
-4078.37
-2356.1
-452.169
-9156.62
-3715.4
-1148.67
-2832.63
-3570.55
-1337.14
-4695.56
-7869.52
-5596.88
-7886.18
-950.543
-769.384
-3535.39
-2480.02
-651.336
-7486.47
-3592.78
-1006.1
-2581.08
-3000.08
-1100.36
-4423.98
-7229.14
-5034.82
-7230.96
-885.043
-790.449
-3316.28
-2618.48
-426.873
-7017.34
-3679.66
-918.436
-2341.08
-2689.37
-972.555
-4051.96
-6698.8
-4631.53
-6918.43
-837.505
-852.313
-3047.35
-2850.39
-548.446
-6798.69
-3796.03
-858.05
-2100.82
-2508
-900.671
-3757.6
-6636.13
-4325.11
-6714.33
-871.364
-979.781
-2728.1
-2713.99
-791.629
-6980.42
-4210.57
5845.01
7379.15
15330.6
22382.7
22785.2
39272.1
17540
44649.3
14300.2
31386.5
21396.9
32467.5
19191.2
25191.6
7246.2
8209.11
14307.5
16373.2
18513.3
18369.7
14620.5
18098.7
21541.7
19364.6
4802.49
3622.32
5897.33
3962.24
12059.3
9567.6
20672.3
14907.5
15984.1
16616.8
17713
16812.5
6139.18
4828.59
37975.6
50852.8
24528.5
30123.8
51175.2
66395
26492.2
30324.3
28101
39716.1
24499.9
32502.8
14295.1
23091.5
2565.29
877.061
2636.51
959.227
8186.59
3294.9
11303.9
4147.65
7998.61
3073.48
8562.55
2740.27
14645.6
4652.98
18912.3
6371.45
23338.7
11551.8
21361.1
12674.5
21983.1
14219.1
19324.8
14584.8
16719.5
9925.64
16699.2
8472.83
22032.2
14135.8
22078.4
14278.9
20398.3
15461.3
20643.7
15544.8
18069
11494.9
18720.3
11788.3
17036.7
7344
7839.89
9499.61
17110.5
8014.77
6808.67
9580.58
18055
7324.99
8911.68
9599.44
18957.5
7509.86
9707.71
10047.4
3311.66
3571.43
1130.73
2138.23
10303.2
10890.3
3945.07
6927.73
13245.2
14759.7
6297.47
10673.1
12217.4
1210.48
13314.9
16266.3
8744.44
876.214
7511.4
11887.6
19072.8
12970.6
9620.39
11597.5
10040.1
8579.84
13414.9
3118.15
2564.13
1755.42
1768.14
9675.04
8233.93
5800.8
5514.29
12089.8
10362.8
7516
6765.67
5886.18
7456.83
12086.1
12486.2
13771.2
12551.7
15506.9
13571.2
10309.3
8670.22
8953.4
9538.79
11776.1
9471.45
10671.8
7935.75
9182.82
6469.06
10574.4
6990.65
10131.1
4944.83
8662.02
9491.54
12443.6
16353.9
13678.2
19981.2
6859.58
7720.84
8948.36
3109.72
7706.38
14925.7
7302.91
15964.9
13535.2
24638.6
13767.7
26105.5
5784.47
12758
5241.05
13560
7955.64
6120.53
10997.7
4445.23
8257.42
1897.61
9628.19
985.5
7620.43
9075.64
11511.6
5364.14
6284.77
10668.3
10168.9
7011.81
2036.1
1825.79
1685.94
1498.21
1397
1277.78
6827.24
5694.88
4996.25
4351.92
3566.07
3134.8
8437.95
7394.74
6882.86
5225.85
4358.83
4159.87
6640.75
5983.6
5876.37
10976.2
8538.46
7274.37
10217.8
7737.14
6372.29
10751.7
8661.86
7611.64
6512.11
4400.42
3487.21
15801.5
13915.9
12212.3
10047.7
8530.5
7218.45
8800.66
7004.12
5721.72
7289.82
5399.1
4259.76
7335.18
4167.45
2424.41
10185.1
13859.2
8019.24
10426.7
10885
16047.9
9693.47
14179.4
102.135
657.274
-399.886
70.5861
2974.45
3458.94
1237.36
756.263
699.976
2425.2
9313.04
13637.7
6620.63
3584.08
9712.65
9637.95
14871.4
16371.9
-574.235
-4004.83
7483.73
7060.6
7010.02
5412.07
910.52
511.242
556.646
221.907
2101.45
290.219
-250.671
-801.627
9203.82
2484.34
6184.84
1672.69
8868.97
2736.2
10728.1
3497.75
8736.67
11857.6
8090.91
11586
13879.3
14763.3
13258.8
14007.3
5693.17
9531.72
6555.71
9454.22
8580.67
11178.2
9462.1
11310.7
13812.7
13774.9
14466.7
13849.7
5745.09
9244.26
6246.97
9433.19
90.179
1602.68
7693.27
5100.41
-481.012
1184.86
7129.39
4527.79
529.686
1836.69
7878.77
5543.74
984.02
2106.12
7943.89
5759.5
-615.543
-713.494
180.975
46.9207
-2782.99
-2836.81
-124.931
-254.281
-434.437
-1844.79
1884.78
1269.33
-10199.9
-9425.88
-5495.22
-4119.09
-253.663
-10367.1
-10785.4
-4288.18
-6289.9
-613.715
10080.3
8032.07
7314.19
7026.87
4539.17
-767.064
-732.463
-16.8138
103.671
-2496.63
-2552.97
68.7035
360.799
-2524.61
-3207.01
934.039
1351.01
-5127.36
-2402.47
-8222.76
-5254.33
-3624.12
-2810.75
-4048.49
-3601.04
759.821
1828.39
3729.79
2363.88
1061.5
-1037.77
1145.79
-696.751
2011.2
630.689
2593.12
3005.08
5314.07
4901.15
10050.9
6119.3
8084.94
8207.97
12274.2
9990.87
8134.42
4909.37
4149.09
4166.27
11827.8
5298.28
13007.8
5935.95
13684.8
10198.1
14604.5
10917.4
9817.92
4047.4
10986.8
4670.31
6734.63
5534.57
5573
8283.21
4468.87
5106.97
4808.17
7684.71
7720.4
5515.52
6272.07
9488.9
9279.42
5994.98
7689.18
9808.81
-790.265
-851.696
-968.275
-20.6653
-312.053
-351.782
-3003.53
-3296.52
-3334.44
-126.379
-891.848
-917.397
-3803.89
-4377.68
-4546.45
795.4
-866.947
-1213.21
-1345.17
-1171.36
-873.132
-3996.25
-4152.34
-3909.09
-3270.47
-3795.42
-3771.36
-4043.48
-4485.69
-4430.25
1675.9
-358.229
-532.138
3416.64
1914.07
973.588
-1113.43
-2370.55
-3042.58
-1018.74
-2665.12
-3386.69
-372.532
-2190.78
-2721.54
2770.57
-535.528
-939.54
-16.0489
-36.5186
-53.5545
-82.4142
-256.491
-151.458
-129.901
-130.546
15.5148
-79.5986
-200.336
-325.504
-437.491
-299.415
-342.688
-386.187
276.613
-26.0788
-282.592
-571.988
-141.112
-244.852
-334.547
-394.77