/*--------------------------------*- C++ -*----------------------------------*\
| =========                 |                                                 |
| \\      /  F ield         | OpenFOAM: The Open Source CFD Toolbox           |
|  \\    /   O peration     | Version:  2306                                  |
|   \\  /    A nd           | Website:  www.openfoam.com                      |
|    \\/     M anipulation  |                                                 |
\*---------------------------------------------------------------------------*/
FoamFile
{
    version     2.0;
    format      ascii;
    arch        "LSB;label=32;scalar=64";
    class       volScalarField;
    location    "2.8";
    object      gradTz;
}
// * * * * * * * * * * * * * * * * * * * * * * * * * * * * * * * * * * * * * //

dimensions      [0 -1 0 1 0 0 0];

internalField   nonuniform List<scalar> 
5712
(
7020.28
23080.1
5564.67
23674.5
4185.78
24518.7
6627.62
37892.9
8151.36
52122.7
8079.65
37907.6
7782.38
31426.9
8087.08
28058.7
4891.51
3004.15
13076.5
7730.08
4803.52
2585.93
14360
7125.31
5324.04
3826.65
17088.6
11943.6
4023.67
2863.79
16814
12140.2
9431.35
3980.98
8120.5
3604.03
3711.77
8764.38
32845.6
8916.16
11741.1
3990.55
42409.5
11536.8
11039.1
3843.22
23389.9
7266.96
11989.8
4192.62
20275.4
6456.2
5486.66
2720.14
8304.59
3216.99
5931.57
3211.86
8110.14
3090.81
7591.2
4313.7
6986.77
3013.69
10434.6
3733.31
3595.89
1250.1
11783.8
8110
7320.84
5324.62
13364.2
10981.6
7309.44
6328.57
6867.39
4586.98
9593.07
6336.53
4844.53
3547.02
2484.54
2030.75
4728.59
4086.57
2475.49
2382.21
4607.55
2990.49
2379.52
1511.76
6087.62
3294.29
4516.2
5501.39
8259.48
5868.32
6484.9
9361.75
4054.51
1910.43
2675.43
3164.65
2026.68
835.517
1160.08
1173.95
7095.08
12755.2
4837.08
14272.4
8364.47
12514.1
5970.95
14994.2
9565.46
11374.9
7738.88
14718.1
11697.5
14212.5
8574.9
8193.32
9021.12
14173.9
12825.1
12360.1
12547.3
18230.5
11510.8
8653.4
7337.65
8189.33
12996.2
14702.2
13060
17086.4
16324.4
13461.1
12418.7
16910.3
16013.1
11666.5
11319.1
15908.8
15468.7
10307.7
8029.15
9335.59
8034.16
10058.3
8839.69
10693.4
10127.9
14736.1
14929.5
9648.63
8266.24
9001.09
8459.67
9139.91
9477.74
10219.9
11269.5
13365.7
15224.5
7903.86
6191.9
5456.64
6986.51
10871.5
13326
7564.71
12020.7
4554.89
6041.96
6747.49
5538.53
1287.13
4647.68
686.527
1675.09
3873.28
8108.71
1444.47
2820.11
557.848
3894.02
331.906
1364.39
4441.86
4520.49
5044.53
3087.62
7002.92
5559.08
8237.56
5609.96
982.092
2471.1
2492.36
1385.84
1405.26
1837.65
2004.84
1508.47
10328.8
6241.28
1948.24
11721.6
6685.72
2181.46
9900.19
6175.19
2069.65
11560.5
6698.67
2179.54
9113.29
5663.95
1853.01
11310.8
6746.84
2248.09
5159.64
2729.95
717.441
6448.15
4220.81
1469.97
7582.45
5227.27
1800.4
8699
5596.18
1851.2
11225.8
6951.56
2431.95
6178.47
3407.41
1058.85
5983.75
4283.5
1608.23
7009.4
5173.92
1889.05
8781.39
6141.19
2184.44
11340.6
7016.42
2477.21
293.468
1990.59
2795.86
4061.98
2117.81
2450.16
5334.08
5083.17
598.059
1041.28
638.762
1085.12
484.03
1415.38
867.138
1858.93
3207.87
1574.53
4071.38
2354.68
2179.93
3792.37
3374.16
972.364
5943.58
1485.23
-1818.3
779.787
1822.18
1378.36
1273.02
1207
9936.82
4704.06
2722.92
1738.58
10096.3
4898.05
3409.36
2188.16
9981.35
5283.09
4960.75
3571.54
3533.64
2596.85
1797.12
1739.2
12534.4
11168.8
5915.05
6156.01
13294.5
12497.4
6562.62
6635.16
5352.95
5531.5
10926.8
9185.47
3551.74
3718.06
2022.31
2278.36
4061.89
4042.07
2264.85
2415.57
3160.4
3404.06
1812.52
2191.46
4860.16
3524.45
4892.47
3623.58
7549.86
4678.7
7263.83
5017.45
2956.18
2547.52
3103
2348.54
1692.78
1613.57
1977.56
1376.48
11936.7
8677.06
6252.1
6594.39
11891.3
8840.46
6296.18
6563.6
12304
9085.09
6387.52
6361.05
13757.8
14621
12742
8734.75
5227.12
13863.4
13098.5
12445.1
10562.1
7240.6
12996.5
11946.6
9743.88
7718.87
5108.33
7701.82
7103.5
7393.16
8726.04
7844.15
6900.54
7422.13
8563.27
8022.76
6698.51
7426.72
8361.84
10473.4
7381.7
10017.4
7036.39
8141.76
6703.34
7871.52
6928.69
6852.55
8217.89
8690.63
7542.81
7878.03
6943.9
6940.57
6409.9
6388.23
6518.79
5442.43
7838.69
7038.84
4783.17
4681.31
2788.34
9003.37
6943.58
6275.27
5024.81
3936.79
2411.9
5718.93
4311.54
4743.94
2247.04
1753.37
1012.83
4943.59
3565.09
1744.16
1442.15
4187.02
1913.55
1660.28
887.556
3439.98
3283.59
3204.6
4807.65
4796.96
4697.57
4118.76
6209.88
3411.08
2312.35
2275.65
3221.22
1066.59
542.371
306.027
650.094
4982.29
2074.27
609.016
5848.12
1500.61
397.373
4983.82
2218.99
678.889
5800.24
1551.98
430.306
4551.28
2150.64
553.722
5642.72
1564.83
364.488
4517.24
2245.81
476.787
4277
2040.45
466.819
4401.44
2102.16
562.954
4560.34
2133.02
443.861
5576.63
1520.7
226.161
5786.62
2867.31
743.416
5427.44
2688.14
725.594
5141.4
2537.74
734.787
5095.66
2160.94
523.832
6018.51
1404.42
339.671
1879.92
682.657
133.102
-224.583
780.095
299.919
80.7095
-45.8812
1994.77
750.502
191.805
-139.552
989.521
417.941
198.457
92.9115
2148.95
838.32
290.518
-10.8698
1698.5
809.652
329.688
82.8285
1295.37
751.754
298.496
7.66338
1228.51
830.513
510.394
316.162
1788.19
806.466
260.44
-186.618
1543.66
684.638
305.311
-194.072
2119.5
830.371
267.735
-144.623
1927.06
756.973
301.657
-324.749
1437.45
756.301
319.227
-52.6943
1188.1
610.076
334.104
8.55076
1068.41
673.941
417.127
266.215
821.265
520.942
358.438
219.701
2414.1
825.324
127.949
-445.509
2423.29
764.689
173.669
-613.557
2413.07
838.611
151.607
-422.817
2348.34
744.672
182.903
-593.748
2369.75
843.969
231.019
-303.716
2190.51
705.877
227.886
-488.005
2075.54
780.863
322.516
-47.9825
2401.71
791.885
325.163
-571.659
1867.65
702.049
327.232
-133.381
1946.36
541.883
157.155
-419.163
781
197.469
45.2067
-88.5068
2001.71
577.601
178.534
-398.918
810.16
213.152
58.6278
-72.8871
2024.66
617.64
224.429
-350.323
818.585
230.751
77.0072
-53.153
1821.39
583.184
259.336
-277.164
790.547
238.244
105.547
-18.3703
1663.79
581.058
288.533
-161.581
701.855
250.957
145.074
29.797
1166.88
474.984
236.659
-43.2045
657.714
331.027
207.815
114.346
1347.36
479.475
230.504
-113.506
663.022
285.699
176.384
72.3171
940.358
463.176
266.091
48.261
593.007
352.35
233.642
155.212
664.913
424.212
299.099
193.031
498.31
354.741
258.378
201.165
-19.4874
9.7685
9.93714
7.21018
5.66906
-2.62436
6.46579
5.59635
3.98878
3.13811
12.1651
27.1009
20.1293
13.7831
10.6781
31.7365
26.2016
17.3838
11.5948
8.92266
47.2986
48.3215
33.0706
22.3253
17.2551
129.63
88.6429
56.3138
37.2309
28.5843
156.631
104.964
66.5825
44.1011
33.9499
226.906
139.137
85.8654
56.408
43.3699
83.6914
70.6835
46.7489
31.2692
24.0216
88.7718
66.5282
43.0729
28.7427
22.0902
57.5366
56.4848
38.0713
25.6903
19.8285
103.576
68.5852
43.0194
28.527
21.8663
108.972
84.5577
55.2635
36.8999
28.418
118.43
79.6844
50.5335
33.5335
25.7819
180.494
112.128
69.344
45.5788
35.0244
150.714
92.5569
57.147
37.5525
28.808
-36.7374
5.2548
7.39389
5.53929
4.38913
-20.1606
1.72204
2.90594
2.22075
1.78328
-16.0099
16.1157
13.7017
9.60806
7.5196
-12.757
5.57259
5.1073
3.61955
2.86342
10.0722
28.7118
20.8505
14.2689
11.1406
15.0588
18.3416
12.2279
8.1212
6.31997
67.7862
55.4707
36.0971
24.241
18.8089
44.9214
34.9711
22.2883
14.8608
11.5376
124.015
72.5042
44.1601
29.0083
22.2466
1512.04
3461.81
1514.36
3418.83
1639.76
3382.71
1956.79
3521.48
2052.44
3646.7
808.141
1284.04
1345.82
2178.06
420.563
619.238
143.041
200.432
7938.15
1891.57
432.359
96.2928
23.8419
2158.22
580.273
154.064
34.9444
7.5666
7865.93
1858.61
424.323
93.6933
23.3667
2195.22
647.176
159.189
36.9193
9.1404
7549.27
1770.55
402.543
88.7424
22.1521
2130.72
626.277
153.663
35.4623
8.81116
6961.93
1617.51
366.474
80.6933
20.1426
2074.93
597.235
144.618
33.0753
8.17225
5876.89
1357.84
307.696
67.8233
16.947
1969.72
551.441
132.028
29.9988
7.388
2819.18
680.993
156.892
34.8177
8.70906
962.056
273.663
64.9525
14.4925
3.5585
4175.77
994.485
227.386
50.2261
12.5465
1416.55
397.783
95.269
21.6314
5.36231
1660.61
404.403
93.5927
20.8682
5.22847
536.146
158.795
37.417
8.33876
2.06597
572.997
138.673
32.1509
7.18913
1.80113
213.424
56.9398
12.3184
3.48337
0.661022
157.03
515.337
4460.69
-805.374
738.824
791.815
2307.9
2953.9
1851.21
3480.58
2913.47
4497.28
3507.77
4354.74
1824.29
2458.94
1952.06
2315.11
1015.87
1056.23
2283.87
1681.21
501.982
-478.039
-777.253
-933.305
-293.41
12738.7
2994.29
4149.6
2658.62
-199.479
-67.5633
2928.65
-1445.06
-817.732
-1114.15
-568.817
6996.75
3674.82
1234.91
1030.73
3642.74
2000.63
633.522
1375.62
-1515.72
-886.44
685.902
539.795
8617.79
4289.59
5272.74
2833.84
4077.89
4400.17
1526.73
-916.551
907.212
1631.95
1355.08
1187.77
1093.99
865.782
1338.53
1086.81
860.222
615.017
268.915
442.95
370.97
284.95
183.513
64.4399
-426.829
-355.996
-265.528
-163.086
-54.9092
-694.634
-580.303
-433.904
-267.165
-90.0473
-835.32
-699.145
-523.86
-323.155
-109.039
-255.246
-204.16
-143.464
-82.3406
-26.2768
9337.82
8235.3
7184.27
6767.78
6466.02
2720.25
2449.28
2341.71
2000.37
1079.91
3197.55
2581.31
2217.95
1778.89
952
2071.23
1707.09
1519.83
1197.93
511.535
-29.8474
26.0437
147.481
166.262
84.346
37.6696
128.397
178.874
163.204
70.8137
2505.77
2119.01
1695.03
1200.17
500.565
-880.921
-432.59
-171.349
-31.4118
6.90894
-651.935
-465.024
-282.353
-135.237
-35.2702
-789.729
-493.361
-257.181
-102.299
-21.7802
-514.52
-427.342
-312.12
-185.724
-60.4384
5244.99
4822.56
4251.13
4028.2
3878.47
2842.15
2265.97
1912.82
1483.66
741.032
1156.4
1061.87
916.026
668.299
267.911
915.096
792.523
646.94
450.804
173.614
3050.34
2477.6
1906.98
1283.19
500.46
1782.01
1524.39
1210.04
811.811
296.577
555.237
469.461
370.666
248.744
91.7756
1218.46
1025.99
792.837
514
182.015
-1315.69
-1062.62
-768.181
-460.002
-152.271
-779.628
-635.971
-460.879
-274.47
-90.1558
619.644
541.998
442.73
305.264
114.347
490.261
431.366
353.792
243.604
90.3519
5605.92
4146.05
3638.07
3436.33
3100.91
3291.56
2580.47
2018.45
1462.49
670.675
3906.59
3235.52
2658.21
2107.55
1050.96
2274.84
1869.92
1473.43
1049.09
464.702
3485.42
2868.41
2209.3
1464.82
547.226
3345.33
2492.93
2054.56
1573.03
680.468
1339.61
1121.09
866.33
565.39
202.425
-813.247
-671.303
-493.494
-298.168
-99.0091
806.577
697.757
568.062
393.388
148.455
-26788.8
-43932.2
-22203.7
-35571.3
-23842.8
-50060.3
-28543.9
-63554.2
-16955.1
-11581
-19109.2
-11877.4
-15664.3
-10057.3
-19419.8
-10195
-22113.7
-16623.2
-32258
-23195.2
-18990.2
-15099
-26973
-20228.5
-15243.2
-15548.5
-12504.2
-11994.8
-14691.8
-13866.8
-37341.4
-10298.3
-14185.1
-5287.59
-45723.9
-12662.8
-12688.4
-4698.03
-27736.4
-8734.32
-14522.1
-5556.39
-24629.7
-7660.99
-11378.8
-4571.87
-14525.9
-5258.16
-10794.9
-4740.44
-12629.7
-4565.39
-11196.3
-5420.05
-10090.1
-3998.39
-12963.4
-4571.23
-4551.3
-1596.56
-9683.83
-6404.36
-8357.32
-5078.14
-8571.3
-6882.88
-7349.03
-5238.52
-8484.68
-4804.48
-9925.24
-6152.74
-5723.87
-3404.43
-3082.06
-1887.62
-4942.45
-3404.29
-2563.44
-1820.71
-5810.86
-3145
-3216.05
-1607.35
-7468.21
-3786.46
-4808.59
-5609.96
-9465.4
-6351.46
-6761.18
-9458.78
-5070.32
-2271.24
-2881.69
-3244.25
-2746.12
-1104.49
-1306.13
-1234.35
-11154.1
-13540.9
-6276.41
-15296.4
-11599.6
-12924.5
-7208.06
-15644.3
-11730
-11780.7
-8592.52
-14897.8
-8056.43
-6518.81
-8794.01
-9729
-9698.03
-8946.88
-10280.6
-11884.6
-12737.5
-18081.4
-6126.87
-6280.09
-6811.54
-8237.77
-12908.6
-12840.2
-8953.16
-16275.7
-12508.9
-11904.1
-8815.36
-16036.4
-12457.4
-10542.2
-8231.97
-14968
-12329.7
-7351.89
-5858.38
-7520.4
-6001.19
-8365.48
-6735.08
-9107.71
-7697.7
-13645.2
-12393.2
-6912.95
-5951.98
-6884.85
-5922.26
-7532.67
-6976.94
-9030.87
-8894.44
-12619.4
-12934.4
-6314.46
-5041.95
-4648.22
-6126.92
-7968.61
-11081.9
-6027.22
-10232.1
-4241.66
-5633.74
-6057.88
-4952.44
-781.613
-4036.7
-223.878
-1188.86
-2886.18
-7038.71
-625.964
-1957.39
-364.217
-3594.47
-128.829
-1114.22
-4354.15
-4346.49
-5013.72
-3004.9
-6740.79
-5234.43
-8110.52
-5318.45
-934.283
-2347.52
-2465.34
-1330.17
-1339.1
-1725
-1967.2
-1448.52
-5426.93
-1867.01
-7336.12
-2504.35
-5547.99
-1947.84
-7510.22
-2697.74
-5504.21
-1917.95
-7959.07
-3074.66
-3437.35
-959.028
-4246.95
-1635.49
-4763.14
-1854.3
-5712.64
-2168.1
-8398.59
-3351.78
-4392.04
-1322.19
-3865.97
-1932.41
-4638.65
-2232.21
-6269.8
-2758.67
-8691.44
-3290.27
-5954.37
-5601.06
-4433.87
-4387.41
-9928.08
-7603.65
-8031.44
-6672.05
-4088.39
-3611.74
-1663.83
-1219.18
-3847.22
-3776.09
-1521.73
-1607.8
-2851.46
-4550.13
-3423.41
-4915.85
-3748.63
-2390.29
-3080.69
-428.3
-6531.24
-1667.4
2601.5
509.066
-856.196
-207.305
305.929
757.898
-2525.19
-1856.92
-931.28
-585.985
-2666.83
-1964.36
-1363.68
-663.556
-2966.02
-2346.91
-1784.05
-896.68
-1096.99
-30.7074
723.267
1149.26
-4991.55
-5397.4
-3823.65
-3608.47
-6657.49
-6689.52
-5504.41
-4639.02
-2539.66
-2879.28
-3850.18
-4463.15
-2285.66
-2002.35
-930.828
-863.187
-3514.29
-2765.62
-1760.77
-1384.62
-1290.12
-1478.01
-186.709
-546.478
-1729.31
-1293.46
-2531.04
-1933.64
-2756.84
-2367.93
-3928.18
-3174.81
-601.576
-386.762
-1218.56
-767.165
419.836
548.818
-290.98
153.582
-3734.87
-4775.69
-3281.79
-4940
-3688.97
-4742.05
-3359.69
-4933.76
-3860.45
-4362.24
-3539.9
-4687.5
-2786.96
-4595.09
-2449.83
-2259.23
-2576.09
-6941.4
-4988.78
-4705.36
-5036.99
-5412.1
-5560.99
-4737.25
-4106.47
-3945.64
-3275.54
-5747.26
-5841.08
-7692.74
-11886.9
-5416.54
-5238.98
-7377.69
-11318.1
-4936.18
-4776.58
-6807.92
-10417.6
-6800.77
-5233.34
-6217.85
-4755.02
-5551.46
-4460.06
-5816.47
-5419.68
-6295.19
-9638.68
-5515.51
-5221.23
-4756.2
-4805.17
-4391.2
-4686.6
-4674.74
-5632.59
-4499.12
-8519.29
-3894.16
-2801.38
-2652.57
-963.995
-5510.62
-4847.67
-4264.43
-3133.72
-2110.17
-804.118
-3253.16
-2652.03
-3190.78
-969.292
-426.642
127.761
-3548.4
-2315.11
-611.045
-346.631
-2669.51
-748.077
-280.915
182.596
-2022.17
-2167.85
-2297.21
-4335.54
-3145.94
-3637.96
-3295.96
-6059.1
-2087.3
-1394.67
-1247.28
-2619.08
232.136
372.444
793.994
76.9531
-4190.22
-1219.16
-8013.95
-832.407
-3906.09
-1307.94
-7784.39
-863.423
-2973.52
-788.927
-7080.99
-690.816
-2875.82
-637.283
-2699.8
-624.09
-3007.29
-916.062
-3240.42
-611.956
-6663.45
-874.566
-4030.96
-780.611
-3790.32
-610.795
-3945.72
-785.224
-4491.75
-681.292
-6995.34
-848.385
-818.469
-163.239
194.956
479.571
-274.217
-39.6788
77.1219
152.591
-806.072
-125.611
215.291
453.876
-185.557
40.162
86.2343
95.9929
-824.382
-81.8052
221.086
405.781
-5.67965
265.751
415.242
463.605
584.151
518.134
589.315
622.248
1060.1
769.593
601.747
450.69
-357.891
139.198
425.861
719.521
-296.099
194.827
345.234
725.476
-892.532
-65.4983
284.502
602.728
-689.151
69.7606
311.904
888.432
140.885
340.842
456.888
614.211
58.9047
302.96
348.17
526.144
616.572
526.742
448.895
363.722
431.079
412.774
349.237
335.016
-1307.29
-284.897
231.636
780.174
-1638.97
-340.528
100.242
977.175
-1254.2
-245.261
251.82
794.796
-1575.7
-314.165
102.035
966.115
-1166.68
-185.07
209.849
691.909
-1429.51
-264.049
71.1255
881.158
-778.383
-31.1062
197.143
508.695
-1480.3
-223
80.8865
1096.47
-727.835
29.703
224.476
693.094
-1531.26
-262.456
25.7972
690.535
-668.292
-100.579
30.1502
176.02
-1430.52
-224.272
45.7797
693.172
-636.009
-88.0016
34.4022
174.025
-1226.4
-149.948
57.0633
674.028
-541.657
-56.8338
49.115
181.887
-1006.22
-88.179
43.1079
605.875
-443.698
-25.0979
51.5084
175.317
-737.107
11.8628
94.0047
520.366
-231.019
47.342
69.8215
171.708
-329.616
147.479
243.076
481.188
103.469
224.216
204.423
240.558
-605.901
42.0169
160.534
495.492
-25.7668
143.722
136.581
206.444
4.26931
259.784
291.56
435.115
231.893
287.298
251.389
254.336
334.912
352.748
299.294
314.072
360.498
331.739
263.842
234.03
108.56
32.0563
13.538
7.76528
5.76203
46.0888
15.382
6.9223
4.0406
2.99872
127.671
46.9142
23.3167
14.3019
10.8326
73.9902
34.0802
18.7963
11.9346
9.12611
157.601
65.8897
35.2087
22.0537
16.7857
187.803
99.049
57.786
37.2602
28.6177
208.257
114.347
67.4474
43.5304
33.3666
233.584
140.431
85.6824
55.9519
42.9889
188.426
87.0184
48.7089
31.0013
23.794
160.073
76.89
43.6489
27.826
21.3573
170.055
71.5088
38.8208
24.369
18.5892
141.254
71.7872
41.7813
26.7614
20.5823
202.747
99.9058
57.0262
36.4611
27.9411
164.188
86.9529
50.8844
32.7532
25.1768
194.466
114.178
69.2798
45.1691
34.6924
161.993
94.394
57.1067
37.1848
28.5722
117.512
28.3189
10.8855
6.03838
4.43388
54.4708
11.3814
4.11813
2.21588
1.59583
127.126
36.9875
16.7158
9.93751
7.42867
57.9658
14.5404
6.26629
3.66987
2.70794
131.654
44.9667
22.5195
13.8128
10.3778
66.1197
24.5702
13.2026
8.37379
6.32396
147.349
63.3202
35.059
22.0462
16.7016
87.5241
38.0608
21.4838
13.6136
10.3054
125.495
70.8378
42.4602
27.4596
21.0981
-1732.96
-3256.07
-1775.2
-3256.65
-1921.62
-3272.32
-2099.99
-3350.64
-2026.56
-3362.67
-788.654
-1237.8
-1317.94
-2063.42
-392.617
-584.297
-107.823
-164.52
-8285
-1956.6
-444.396
-98.4882
-24.2801
-2227.53
-599.53
-158.613
-35.8068
-7.71397
-8145.1
-1911.61
-434.35
-95.5433
-23.7454
-2270.79
-668.929
-163.758
-37.8032
-9.31981
-7708.54
-1803.2
-409.14
-90.0245
-22.4257
-2197.33
-644.396
-157.46
-36.2007
-8.96382
-7002.62
-1629.61
-369.49
-81.3554
-20.2962
-2111.19
-608.363
-147.121
-33.5845
-8.28197
-5852.01
-1357
-308.16
-67.9992
-16.9987
-1967.87
-554.96
-133.153
-30.2645
-7.45114
-2802.72
-677.479
-156.237
-34.7056
-8.68832
-948.163
-271.247
-64.6102
-14.4505
-3.55455
-4149.43
-990.159
-226.792
-50.1579
-12.5409
-1400.58
-396.699
-95.3653
-21.6908
-5.38232
-1650.23
-402.063
-93.1046
-20.7745
-5.20872
-523.772
-156.004
-36.8718
-8.24122
-2.04691
-565.2
-136.958
-31.7785
-7.11307
-1.78411
-201.099
-54.0231
-11.6879
-3.35818
-0.634186
216.444
-1008.87
-5238.99
900.853
-6298.07
-2760.54
-6094.18
-2790.48
-11051.5
-5884.21
-12394.2
-6564.07
-136.24
-541.992
-851.292
-1003.13
-901.809
-373.006
-223.282
-839.422
-1273.9
-1405.87
-1133.22
-390.395
-115.826
-124.237
-435.105
-438.39
-622.532
-615.557
-600.712
-567.37
-538.315
-512.516
-423.511
-375.38
844.939
2200.98
3566.05
2525.93
2324.65
1121.19
802.81
2308.93
3731.11
4316.9
3600.16
1641.46
-122.874
-103.882
-78.7304
-49.0666
-16.6618
-489.516
-414.601
-314.826
-196.518
-66.791
-768.826
-651.123
-494.407
-308.614
-104.892
-905.679
-766.747
-581.994
-363.188
-123.424
-814.019
-688.878
-522.582
-325.906
-110.707
-338.246
-287.131
-217.748
-135.328
-45.7989
-201.276
-170.069
-128.83
-80.2648
-27.2525
-757.746
-641.399
-486.791
-303.761
-103.226
-1149.67
-972.915
-738.289
-460.686
-156.561
-1267.97
-1072.34
-813.335
-507.394
-172.426
-1021.31
-863.078
-654.226
-408.013
-138.647
-352.801
-298.757
-226.558
-141.123
-47.8836
-104.533
-88.4498
-67.0913
-41.8394
-14.2119
-112.189
-94.9945
-72.1074
-44.9937
-15.2884
-393.108
-333.08
-253.016
-157.975
-53.6969
-396.135
-335.698
-255.046
-159.262
-54.1379
-562.399
-476.475
-361.91
-225.951
-76.7999
-556.068
-471.073
-357.779
-223.36
-75.9179
-542.647
-459.676
-349.068
-217.873
-74.0392
-512.279
-433.713
-329.197
-205.411
-69.7972
-486.1
-411.464
-312.079
-194.521
-66.0404
-462.167
-390.664
-296.013
-184.438
-62.6182
-382.49
-323.356
-244.443
-151.673
-51.3081
-338.125
-285.261
-215.545
-133.9
-45.366
752.094
629.691
476.585
299.146
102.512
1951.12
1629.23
1233.04
776.325
267.413
3126.4
2595.57
1969.52
1254.78
440.404
2199.69
1822.5
1387.34
888.857
313.27
2056.1
1708.38
1293.91
813.48
264.283
1022.38
867.033
665.456
418.965
132.527
715.395
599.019
452.624
283.26
96.801
2052.65
1716.11
1296.77
813.005
278.603
3297.71
2747
2076.64
1308.11
451.387
3791.19
3146.02
2379.91
1506.87
523.902
3161.69
2623.93
1987.11
1259.56
436.252
1456.92
1221.56
932.838
593.834
205.307
301.173
704.091
1007.47
1150.51
1036.79
510.021
451.288
1060.09
1477.23
1577.66
1259.84
473.844
246.121
234.344
560.237
544.348
735.909
710.774
694.213
639.918
620.836
525.058
560.817
418.403
-688.755
-1963.37
-3154.12
-1973.64
-1647.49
-378.927
-733.389
-2195.87
-3480.91
-3867.18
-2953.7
-871.236
272.48
231.272
176.007
110.063
37.444
636.658
539.987
410.646
256.642
87.2863
910.749
772.239
587.11
366.857
124.759
1039.88
881.566
670.113
418.673
142.373
937.354
794.841
604.257
377.514
128.367
463.74
395.247
301.311
188.24
63.9262
408.207
346.387
263.559
164.793
56.0616
958.188
812.349
617.551
385.871
131.228
1334.63
1130.95
859.411
536.868
182.563
1424.6
1206.55
916.499
572.44
194.659
1137.09
962.631
731.034
456.588
155.278
429.178
364.502
277.329
173.253
58.8877
222.686
189.018
143.853
89.9548
30.6025
212.023
179.955
136.944
85.6282
29.1292
506.653
429.799
326.899
204.318
69.4906
492.289
417.612
317.625
198.518
67.5173
665.401
564.347
429.144
268.18
91.202
642.624
544.971
414.367
258.926
88.0522
627.766
532.477
404.92
253.03
86.0442
578.43
490.405
372.782
232.895
79.191
561.737
476.694
362.553
226.513
77.0065
474.514
402.187
305.614
190.865
64.8848
508.613
432.408
329.05
205.414
69.7516
378.397
320.856
243.767
152.129
51.6785
-609.279
-506.877
-381.883
-239.343
-82.0745
-1734.23
-1443.1
-1089.91
-686.261
-236.743
-2747.45
-2267.18
-1714.62
-1093.37
-385.402
-1676.61
-1355.07
-1012.56
-643.816
-227.177
-1408.13
-1125.33
-822.181
-500.729
-151.862
-310.278
-224.33
-143.621
-71.6385
-7.69569
-652.292
-545.167
-411.436
-257.426
-88.0051
-1950.29
-1629.18
-1230.66
-771.786
-264.637
-3068.9
-2550.19
-1924.91
-1212.39
-418.731
-3374.8
-2782.71
-2095.4
-1324.7
-461.02
-2557.84
-2092.23
-1566.52
-987.348
-341.307
-734.647
-582.848
-425.266
-263.839
-89.8719
-1387.6
-877.589
-201.318
733.458
1036.49
1318.96
634.664
-10627.8
-1606.17
-3049.52
-1463.89
299.894
-3941.67
890.166
2528.37
1218.75
-5749.92
-2589.82
-376.605
-492.73
-3301.1
-1202.94
-205.24
-974.459
2228.46
1422.18
-466.846
-108.411
-7589.37
-3527.45
-4153.53
-1995.63
-3473.15
-3211.99
-1017
1446.07
-314.999
-667.421
-446.157
-404.398
-532.22
-634.288
-538.174
-344.519
-240.092
-187.998
-107.608
-165.619
-130.047
-97.285
-64.0626
-23.4434
663.49
562.693
427.489
266.764
90.6423
935.141
790.662
598.987
372.979
126.547
1190.07
1006.45
762.847
475.315
161.343
575.309
487.355
367.978
227.254
76.4245
-7676.16
-6949.83
-6370.05
-6589.45
-7028.43
-1030.49
-712.376
-880.119
-1062.11
-768.444
-2141.34
-1591.93
-1416.75
-1280.55
-812.111
-938.574
-626.004
-596.101
-553.16
-255.461
274.677
222.344
145.437
66.0677
11.646
-3296.94
-2715.45
-2108.93
-1452.03
-592.229
805.132
673.561
496.524
296.291
95.2733
2202.37
1803.52
1337.16
825.979
280.309
1094.9
918.995
689.799
425.383
142.919
-4043.73
-3810.54
-3516.49
-3678.51
-3984.15
-1773.56
-1277.02
-1112.75
-974.974
-581.795
-291.127
-250.168
-245.414
-226.398
-115.451
-395.647
-320.893
-266.439
-203.852
-88.9037
-2759.17
-2243.23
-1740.45
-1190.5
-475.597
-1013.23
-827.757
-648.159
-445.545
-169.189
-153.454
-113.825
-88.8621
-67.2
-29.1746
-843.107
-695.162
-532.167
-347.09
-124.717
1991.55
1667.2
1252.67
775.811
262.289
1281.98
1080.62
813.879
502.811
169.321
-390.663
-319.422
-253.501
-177.97
-69.7602
-76.9225
-58.1545
-53.2895
-47.9949
-22.592
-4634.15
-3264.86
-2928.22
-2999.45
-3024.37
-2562.32
-1920.22
-1482.52
-1108.85
-546.11
-2767.81
-2198.54
-1804.11
-1545.03
-834.366
-1472.29
-1142.75
-885.032
-663.875
-332.439
-2919.52
-2368.58
-1815.88
-1214.37
-462.308
-2216.07
-1455.18
-1224.64
-1045.27
-504.034
-865.634
-705.801
-540.78
-357.758
-131.346
1305.47
1102.81
832.881
516.072
174.226
-240.26
-187.66
-158.527
-127.631
-56.6393
-0.115953
43.6671
105.72
142.408
110.886
7.6462
-18916.1
-16695.1
-15966
-18194.5
-13858.7
-10968.8
-12526.9
-9514.95
-16341
-14284.7
-15054.4
-14125.6
-13206.9
-11241.7
-13867.1
-15546.9
-13891.4
-12819
-14457.7
-11673.8
-9889.88
-10479.5
-8411.7
-14635.5
-12960.8
-13480.9
-12244.3
-11668.6
-10908.7
-11223.3
-12191.3
-11170.2
-10148.5
-11101.9
-9691.53
-8319.84
-8758.88
-7535.64
-12234.6
-11062.5
-11387.1
-10339.6
-9901.23
-9163.23
-9383.37
-8498.26
-7993.95
-7167.01
-7598.34
-7171.09
-6430.98
-6515.07
-5974.99
-8784.81
-8852.31
-8287.36
-8334.37
-7385.11
-6672.7
-7391.62
-5429.11
-5188.34
-4618.53
-4818.09
-4802.46
-4348.27
-4306.5
-3986.67
-5811.66
-5790.76
-5553.09
-5408.73
-5052.43
-4563.3
-4919.99
-1953.66
-1884
-1672.56
-1731.61
-1774.68
-1660.05
-1579.79
-1475.14
-2207.2
-2194.2
-2063.21
-1957.16
-1899.63
-1743.93
-1860.43
-7306.17
-7213.78
-10809.8
-11644.8
-6902.35
-6145.66
-9498.44
-7739.36
-5842.68
-4495.62
-5805.21
-4452.55
-5848.64
-5584.34
-4512.14
-7304.22
-6942.2
-9626.78
-10493.4
-6460.31
-5867.67
-8384.95
-7244.31
-5856.33
-4059.09
-5757.64
-4259.02
-5282.09
-5073.08
-4607.91
-6711.09
-6410.86
-8182.35
-8766.71
-6041.67
-5641.73
-7336.63
-6515.98
-4926.04
-4487.7
-4913.87
-4692.97
-4611.12
-4599.2
-4818.3
-5474.39
-5283.54
-6159.65
-6462.13
-5030.62
-4720.85
-5715.82
-5234.49
-4798.19
-4126.36
-4719.09
-4360.75
-4429.84
-4377.55
-4392.59
-3813.54
-3702.32
-4090.24
-4241.37
-3447.23
-3200.92
-3861.49
-3556.16
-3415.44
-3216.99
-3336.19
-3347
-3128.35
-3054.38
-3153.14
-1426.77
-1386.19
-1498.62
-1546.78
-1283.92
-1182.57
-1422.69
-1313.17
-1124.98
-1186.53
-1199.17
-1274.92
-1164.19
-1123.52
-1155.92
6988.4
22602.8
5533.91
23672.3
4169.86
24520.4
6623.5
37900.9
8146.57
52134
8063.54
37904.2
7749.17
31409.9
8064.07
27449.2
4884.51
3002.5
13077.3
7730.19
4802.04
2585.75
14363.2
7126.45
5290.69
3800.82
16745.7
11719.3
4003.54
2855.39
16828
12157.1
9437.19
3974.47
8120.92
3601.73
3707.14
8771.87
32854.5
8917.4
11743.1
3990.59
42419.5
11539
11041.3
3843.88
23402
7269.17
11993.2
4193.17
20291.3
6459.07
5432.35
2693.7
8157.4
3161.84
5932.24
3212.32
8123.83
3095.97
7590.27
4313.85
6991.19
3015.81
10443.2
3736.56
3597.96
1250.91
11782.7
8109.32
7320.67
5324.42
13362.6
10980.4
7309.58
6328.41
6867.5
4586.94
9592.33
6336.24
4844.9
3547.04
2484.2
2030.57
4729.22
4086.7
2475.55
2382.21
4608.31
2990.55
2379.3
1511.57
6088.41
3294.81
4516.36
5501.67
8259.33
5868.6
6484.96
9362.12
4055.79
1910.97
2675.6
3164.83
2026.81
835.61
1159.98
1173.96
7051.33
12749.4
4806.4
14262.7
8366.32
12510
5973.93
14991.2
9565.59
11373.9
7739.58
14717.4
11696.5
14210.4
8574.45
8193.7
9021.81
14172
12824
12359.3
12546.9
18230.5
11509.2
8652.53
7337.25
8189.32
12996.6
14723.5
13095.8
17090.7
16306.3
13454.3
12413.5
16902.6
16008.2
11663.9
11315.7
15907.4
15466.8
10306.4
8028.14
9334.54
8033.12
10057.3
8838.38
10691.8
10126.1
14735.4
14928.4
9647.53
8265.24
9000.28
8458.7
9139.23
9476.77
10219.4
11268.6
13365.7
15223.9
7903.38
6191.65
5456.44
6986.47
10870.5
13325.3
7564.31
12020.3
4554.83
6042.04
6747.25
5538.43
1287.01
4647.67
686.443
1675.06
3873.15
8108.54
1444.48
2820.08
557.756
3894.08
331.798
1364.36
4441.95
4520.6
5044.73
3087.7
7002.92
5559.1
8237.8
5610.02
982.082
2471.15
2492.45
1385.87
1405.24
1837.67
2004.88
1508.48
10354.3
6254.03
1955.85
11727.1
6694.42
2184.43
9896.64
6174.09
2069.52
11557.3
6697.01
2179.29
9110.85
5662.71
1852.7
11308.9
6745.54
2247.73
5158.88
2729.45
717.274
6447.23
4220.18
1469.76
7581.21
5226.43
1800.13
8697.35
5595.14
1850.88
11224.6
6950.57
2431.6
6177.68
3406.88
1058.65
5982.83
4282.81
1607.96
7008.37
5173.1
1888.74
8780.34
6140.3
2184.1
11339.7
7015.56
2476.86
298.79
1992.65
2809.88
4066.37
2120.16
2451.24
5341.9
5085.7
581.314
1028.58
619.746
1068.08
488.306
1415.07
871.495
1858.17
3219.85
1579.7
4075.95
2355.98
2183.63
3800.22
3378.79
976.211
5946.37
1487.22
-1806.54
788.004
1827.81
1383.45
1282.57
1214.63
9948.35
4699.57
2711.59
1730.2
10087.7
4898.04
3407.33
2188.08
9976.56
5282.19
4962.17
3571.25
3537.6
2597.39
1801.98
1740.98
12530.9
11166.9
5916.03
6156.1
13292
12495.7
6563.18
6635.16
5353.99
5531.52
10923.3
9183.78
3553.88
3718.65
2024.05
2278.95
4063.19
4042.45
2265.7
2415.88
3162.83
3404.64
1814.77
2192.15
4860.59
3524.49
4892.4
3623.52
7547.56
4678.06
7262.63
5016.91
2957.96
2548.1
3103.45
2348.8
1694.88
1614.6
1978.19
1376.93
11966.2
8682.9
6253.92
6595.05
11883.2
8839.82
6294.99
6563.57
12296.4
9081.73
6385.88
6359.89
13753
14617.5
12737
8731.31
5226.11
13860.6
13094.6
12440.9
10558.6
7239.24
12994.2
11943.8
9741.48
7717.13
5107.6
7702.27
7109.03
7389.08
8719.95
7842.03
6900.17
7419.62
8562.21
8020.6
6696.98
7425.9
8361.22
10471.5
7380.55
10014.9
7034.99
8139.39
6701.86
7869.41
6927.24
6851.52
8216.99
8689.09
7541.62
7876.13
6942.53
6938.75
6408.56
6386.77
6517.62
5441.64
7837.79
7037.29
4782.19
4680.81
2787.89
9001.99
6942.66
6274.78
5024.35
3936.37
2411.53
5717.62
4310.68
4743.94
2246.92
1753.63
1012.94
4943.55
3564.94
1744.31
1442.2
4187.02
1913.47
1660.59
887.688
3439.67
3283.23
3204.4
4807.27
4796.03
4696.84
4118.28
6209.24
3411.09
2312.25
2275.69
3221.09
1066.9
542.514
306.317
650.215
4988.5
2080.08
611.84
5854.48
1509.78
399.696
4982.31
2219.15
678.907
5797.84
1550.36
430.344
4550.2
2150.29
553.697
5641.91
1564.17
364.349
4516.5
2245.38
476.647
4276.18
2040.03
466.689
4400.56
2101.74
562.834
4559.39
2132.57
443.728
5575.94
1520.33
226.046
5785.79
2866.83
743.25
5426.54
2687.68
725.441
5140.51
2537.29
734.646
5094.85
2160.53
523.695
6017.86
1404.19
339.601
1872.48
678.341
130.472
-225.6
772.422
295.988
78.8076
-46.7044
1995.12
750.587
191.771
-139.76
989.674
417.991
198.393
92.7618
2148.9
838.303
290.484
-10.9907
1698.39
809.639
329.675
82.7313
1295.47
751.822
298.554
7.67364
1229.1
830.787
510.54
316.223
1788.23
806.507
260.471
-186.627
1543.71
684.693
305.353
-194.031
2119.35
830.345
267.736
-144.66
1926.95
756.963
301.669
-324.725
1437.68
756.425
319.306
-52.6571
1188.28
610.191
334.179
8.60303
1068.86
674.169
417.255
266.279
821.547
521.111
358.544
219.77
2413.18
824.261
126.315
-446.729
2425.92
765.315
173.008
-615.409
2412.61
838.383
151.55
-422.935
2347.84
744.479
182.956
-593.646
2369.37
843.839
231.002
-303.726
2190.04
705.72
227.892
-487.92
2075.24
780.753
322.475
-48.0375
2401.31
791.769
325.151
-571.599
1867.46
701.998
327.21
-133.431
1952.09
543.996
157.45
-421.846
784.732
198.669
45.3472
-89.5524
1998.99
576.754
178.375
-398.486
809.002
212.825
58.54
-72.696
2024.06
617.409
224.423
-350.196
818.264
230.637
76.9927
-53.0703
1821.03
583.051
259.314
-277.102
790.364
238.172
105.53
-18.3438
1663.56
580.983
288.512
-161.553
701.746
250.913
145.054
29.7985
1166.89
475.021
236.69
-43.1687
657.738
331.05
207.829
114.357
1347.26
479.463
230.508
-113.478
662.975
285.682
176.373
72.3149
940.471
463.265
266.152
48.3137
593.108
352.421
233.687
155.245
665.111
424.347
299.188
193.099
498.474
354.857
258.453
201.221
-20.7643
8.9281
9.40323
6.84236
5.37262
-3.47753
5.8814
5.20358
3.70393
2.90147
12.1516
27.0962