/*--------------------------------*- C++ -*----------------------------------*\
| =========                 |                                                 |
| \\      /  F ield         | OpenFOAM: The Open Source CFD Toolbox           |
|  \\    /   O peration     | Version:  2306                                  |
|   \\  /    A nd           | Website:  www.openfoam.com                      |
|    \\/     M anipulation  |                                                 |
\*---------------------------------------------------------------------------*/
FoamFile
{
    version     2.0;
    format      ascii;
    arch        "LSB;label=32;scalar=64";
    class       volVectorField;
    location    "1.1";
    object      flux;
}
// * * * * * * * * * * * * * * * * * * * * * * * * * * * * * * * * * * * * * //

dimensions      [0 1 -1 1 0 0 0];

internalField   nonuniform List<vector> 
2658
(
(9.83639e-07 9.62675e-07 -8.24032e-06)
(1.4486e-06 5.62999e-07 -7.86056e-06)
(4.69587e-07 1.73155e-07 -5.24419e-06)
(-1.36511e-08 -1.14481e-08 -4.72657e-06)
(-1.77821e-06 -1.74951e-06 -6.06393e-06)
(-1.49964e-06 2.13633e-06 -6.19608e-06)
(1.45568e-06 -1.69942e-06 -5.23977e-06)
(1.44088e-06 1.43374e-06 -5.07084e-06)
(-2.02424e-08 -7.10535e-09 -4.72261e-06)
(2.12196e-06 -1.51919e-06 -6.17855e-06)
(-1.50577e-06 4.5526e-07 -6.51938e-06)
(-1.14258e-06 -3.82751e-06 -5.40281e-06)
(8.02772e-07 2.39989e-06 -7.42135e-06)
(9.34145e-07 2.43765e-06 -7.0068e-06)
(7.08007e-07 1.98803e-06 -7.15917e-06)
(-4.90788e-08 2.03476e-06 -7.35358e-06)
(-3.11319e-08 2.21837e-06 -7.16163e-06)
(-2.13565e-08 2.00467e-06 -7.33742e-06)
(-7.74724e-07 2.03428e-06 -7.14636e-06)
(-1.0151e-06 2.4074e-06 -6.91232e-06)
(-9.84185e-07 2.32604e-06 -7.29565e-06)
(-2.28466e-06 2.04407e-06 -6.57307e-06)
(-2.69645e-06 6.84006e-07 -7.4793e-06)
(1.99217e-06 -4.31361e-07 -5.55765e-06)
(-8.2662e-07 7.24987e-07 -8.77696e-06)
(-1.08108e-06 2.21541e-06 -7.28896e-06)
(-2.32364e-06 -4.7302e-07 -6.56629e-06)
(-3.1917e-07 1.38261e-07 -7.62078e-06)
(-1.70072e-06 1.80683e-06 -7.84619e-06)
(-1.85173e-06 -9.27286e-11 -6.54881e-06)
(-1.7007e-06 -1.80686e-06 -7.84612e-06)
(-2.32369e-06 4.7303e-07 -6.56629e-06)
(-1.08114e-06 -2.21553e-06 -7.28889e-06)
(-2.6966e-06 -6.83994e-07 -7.4792e-06)
(-8.2657e-07 -7.24964e-07 -8.77694e-06)
(1.99215e-06 4.31415e-07 -5.55755e-06)
(-9.81805e-07 -8.65445e-08 -6.93576e-06)
(4.96119e-07 1.92391e-07 -1.00924e-05)
(-2.2843e-06 -2.04468e-06 -6.57299e-06)
(-9.84458e-07 -2.32618e-06 -7.29584e-06)
(-1.01507e-06 -2.40757e-06 -6.91241e-06)
(-7.74672e-07 -2.03436e-06 -7.14637e-06)
(-2.15012e-08 -2.00453e-06 -7.33735e-06)
(7.14393e-08 9.81121e-07 -1.03434e-05)
(-1.23014e-06 -1.02586e-07 -6.30149e-06)
(1.14838e-06 -2.98889e-08 -6.23305e-06)
(-1.50574e-06 -4.5529e-07 -6.5194e-06)
(-6.16045e-08 1.02202e-06 -1.03389e-05)
(-4.93065e-08 -2.03513e-06 -7.35369e-06)
(7.08024e-07 -1.98806e-06 -7.15921e-06)
(9.34191e-07 -2.43748e-06 -7.00674e-06)
(8.02749e-07 -2.3999e-06 -7.42142e-06)
(2.16724e-06 -2.14662e-06 -6.64994e-06)
(-4.4995e-07 4.36288e-07 -1.04829e-05)
(2.41419e-06 -8.02473e-07 -7.42804e-06)
(1.99583e-06 -7.29656e-07 -7.16771e-06)
(-1.03751e-06 5.39524e-08 -1.03388e-05)
(4.98125e-08 -1.16498e-06 -6.26111e-06)
(-3.60277e-06 -1.67266e-11 -5.61825e-06)
(2.01097e-06 -7.46869e-09 -7.34496e-06)
(-1.03745e-06 -5.39294e-08 -1.03389e-05)
(1.99587e-06 7.29618e-07 -7.16781e-06)
(2.41417e-06 8.02528e-07 -7.42812e-06)
(-4.49878e-07 -4.36343e-07 -1.04829e-05)
(4.34528e-07 4.39812e-07 -6.52227e-06)
(-3.83357e-06 -1.1091e-06 -5.41354e-06)
(4.26122e-07 -1.49579e-06 -6.50284e-06)
(-6.82241e-08 -7.49688e-08 -5.68299e-06)
(-1.12589e-06 -2.36741e-06 -6.12235e-06)
(-1.12602e-06 2.36742e-06 -6.12221e-06)
(-2.45228e-08 2.05426e-11 -4.78745e-06)
(1.04224e-06 1.86837e-06 -5.13004e-06)
(-9.66133e-08 -2.63236e-08 -3.81828e-06)
(-1.04913e-06 1.42685e-06 -4.22073e-06)
(4.15719e-08 2.56027e-09 -3.10924e-06)
(-1.10884e-06 -1.08623e-06 -4.17965e-06)
(1.41288e-06 -1.07276e-06 -4.20828e-06)
(-2.47281e-09 4.87524e-08 -3.10475e-06)
(-1.11837e-06 9.52562e-07 -3.38662e-06)
(1.24263e-06 6.21777e-07 -3.31446e-06)
(-1.62851e-06 -7.20626e-07 -4.20855e-06)
(-3.99448e-08 -8.31542e-08 -3.8162e-06)
(1.87401e-06 9.94305e-07 -5.10302e-06)
(-1.70706e-06 1.50208e-06 -5.25646e-06)
(-3.71166e-08 -2.54662e-08 -4.452e-06)
(-1.98286e-08 -1.21285e-08 -2.91651e-06)
(2.72325e-10 4.78181e-09 -1.78606e-06)
(5.50893e-09 8.16748e-09 -1.01423e-06)
(4.95192e-09 6.65658e-09 -5.33682e-07)
(3.21991e-09 4.44816e-09 -2.60758e-07)
(1.70341e-09 2.57545e-09 -1.19968e-07)
(-1.59538e-09 -2.88642e-09 -7.18879e-08)
(1.3435e-09 1.40201e-09 -5.16861e-08)
(-1.10198e-08 8.04047e-09 -4.39652e-08)
(6.91641e-09 -3.08738e-09 -4.38113e-08)
(-1.55009e-09 -1.00565e-08 -5.19091e-08)
(-8.55464e-09 -1.05954e-09 -4.29451e-08)
(2.29495e-11 -8.44214e-09 -6.35408e-08)
(8.52765e-09 -1.20558e-09 -4.29386e-08)
(-7.07443e-09 -2.88632e-09 -4.33889e-08)
(3.71316e-09 -9.1599e-09 -6.37381e-08)
(9.60835e-09 -2.20904e-09 -4.39356e-08)
(9.42927e-09 -9.56776e-09 -5.10283e-08)
(6.47355e-09 -4.18361e-09 -5.25763e-08)
(6.78454e-09 -3.66858e-09 -4.46985e-08)
(-1.49735e-08 8.58507e-09 -5.20611e-08)
(-2.51361e-09 -3.00654e-09 -3.83278e-08)
(-1.78085e-09 -5.41101e-10 -7.3352e-08)
(-1.06663e-09 1.32871e-09 -4.05378e-08)
(3.89687e-09 -8.65501e-09 -5.70304e-08)
(8.33386e-09 2.87496e-09 -5.25293e-08)
(3.16366e-09 -3.80893e-09 -4.32195e-08)
(6.51256e-09 -4.7453e-14 -5.82889e-08)
(3.16298e-09 3.80916e-09 -4.32179e-08)
(8.33383e-09 -2.87572e-09 -5.25298e-08)
(3.89698e-09 8.65501e-09 -5.70323e-08)
(6.78574e-09 3.66854e-09 -4.47008e-08)
(-1.49739e-08 -8.58622e-09 -5.20613e-08)
(9.43072e-09 9.56684e-09 -5.10286e-08)
(6.47508e-09 4.18286e-09 -5.25765e-08)
(9.60755e-09 2.20658e-09 -4.39318e-08)
(3.71133e-09 9.15975e-09 -6.3733e-08)
(-7.07516e-09 2.88604e-09 -4.33882e-08)
(8.52773e-09 1.20499e-09 -4.29374e-08)
(-1.45641e-08 -6.83265e-09 -4.60219e-08)
(1.44285e-08 -6.57969e-09 -4.62312e-08)
(-1.10206e-08 -8.04145e-09 -4.39638e-08)
(-1.55071e-09 1.00579e-08 -5.19119e-08)
(-8.55443e-09 1.06072e-09 -4.29451e-08)
(6.91545e-09 3.08819e-09 -4.38127e-08)
(-3.84953e-09 9.04194e-09 -6.39981e-08)
(-9.49463e-09 2.04211e-09 -4.3768e-08)
(-6.15593e-09 4.24863e-09 -5.23746e-08)
(-5.58715e-09 4.15501e-09 -4.35307e-08)
(-3.81602e-09 8.17004e-09 -5.6887e-08)
(2.82343e-10 -3.91535e-09 -4.25122e-08)
(-2.00797e-09 5.54414e-10 -4.19648e-08)
(-1.2972e-08 7.62866e-10 -5.35643e-08)
(9.03388e-09 -9.64858e-09 -4.47116e-08)
(9.0295e-09 9.65151e-09 -4.4713e-08)
(-2.00761e-09 -5.54737e-10 -4.19629e-08)
(2.80036e-10 3.91618e-09 -4.25119e-08)
(3.53935e-09 -2.16748e-09 -4.55932e-08)
(-4.11601e-09 -2.23037e-09 -4.71846e-08)
(-4.70953e-09 -2.06592e-11 -5.89676e-08)
(-4.10663e-09 2.22366e-09 -4.71631e-08)
(1.89353e-09 4.46056e-12 -5.65983e-08)
(2.20403e-09 5.67085e-12 -5.79673e-08)
(-8.42908e-09 -4.55794e-09 -3.90689e-08)
(-8.76664e-09 4.49127e-09 -3.92589e-08)
(-7.25359e-09 1.19188e-11 -3.6371e-08)
(-9.19102e-09 3.76941e-10 -5.27511e-08)
(-9.04847e-09 2.55577e-09 -5.48396e-08)
(-9.30651e-09 -2.93654e-09 -3.28022e-08)
(-7.73568e-09 1.1287e-08 -4.58275e-08)
(-1.3305e-08 2.50773e-09 -4.4115e-08)
(-1.17933e-08 1.06669e-08 -4.01753e-08)
(-5.08723e-09 1.27444e-08 -4.35694e-08)
(-6.08697e-09 1.36398e-08 -4.01047e-08)
(-4.52266e-09 1.0523e-08 -4.29798e-08)
(1.70406e-10 1.06038e-08 -4.42246e-08)
(-3.368e-11 1.25371e-08 -4.08107e-08)
(-3.3962e-10 1.06351e-08 -4.42387e-08)
(4.15346e-09 1.06246e-08 -4.27766e-08)
(5.9366e-09 1.38791e-08 -3.96552e-08)
(5.00353e-09 1.28403e-08 -4.30958e-08)
(1.17291e-08 1.10726e-08 -3.96908e-08)
(1.535e-08 3.4652e-09 -4.57203e-08)
(-3.58239e-09 5.06517e-13 -7.36745e-08)
(1.45001e-08 4.37606e-09 -7.42575e-08)
(-4.07378e-08 -2.65137e-08 -1.2375e-07)
(6.06581e-08 4.37414e-08 -1.91944e-07)
(-8.71267e-08 -6.09739e-08 -2.85696e-07)
(1.31433e-07 9.27616e-08 -4.16386e-07)
(-1.82541e-07 -1.32254e-07 -6.00428e-07)
(2.65562e-07 1.85242e-07 -8.43659e-07)
(-3.56892e-07 -2.63746e-07 -1.16881e-06)
(4.97826e-07 3.43716e-07 -1.58291e-06)
(-6.47283e-07 -4.85093e-07 -2.10607e-06)
(8.67552e-07 5.90216e-07 -2.75024e-06)
(-1.08781e-06 -8.27674e-07 -3.51438e-06)
(1.41397e-06 9.38383e-07 -4.42021e-06)
(-1.69587e-06 -1.32326e-06 -5.43938e-06)
(2.20899e-06 1.38158e-06 -6.41889e-06)
(-2.20052e-06 1.36034e-06 -6.20487e-06)
(2.33805e-06 1.14252e-06 -6.08647e-06)
(-2.41737e-06 1.08636e-06 -6.14901e-06)
(2.1219e-06 1.51926e-06 -6.17846e-06)
(-1.7783e-06 1.74945e-06 -6.06386e-06)
(-1.36581e-08 1.14274e-08 -4.7265e-06)
(-1.49955e-06 -2.13638e-06 -6.19614e-06)
(4.2604e-07 1.4958e-06 -6.50274e-06)
(-3.83348e-06 1.10901e-06 -5.41354e-06)
(4.34535e-07 -4.39829e-07 -6.52228e-06)
(-1.1426e-06 3.82745e-06 -5.40282e-06)
(4.73823e-07 -4.8279e-07 -8.74128e-06)
(-3.71232e-08 2.54367e-08 -4.45199e-06)
(-1.98297e-08 1.21093e-08 -2.91649e-06)
(2.59857e-10 -4.78733e-09 -1.78605e-06)
(5.49997e-09 -8.17768e-09 -1.01422e-06)
(4.95542e-09 -6.66477e-09 -5.33675e-07)
(3.22241e-09 -4.44722e-09 -2.60752e-07)
(1.70409e-09 -2.57536e-09 -1.19965e-07)
(-1.59557e-09 2.8867e-09 -7.18882e-08)
(1.3434e-09 -1.40139e-09 -5.16865e-08)
(2.56117e-10 -1.03954e-10 -3.70536e-08)
(-4.06804e-09 -3.88093e-09 -4.09013e-08)
(-5.93611e-10 1.91162e-09 -7.22467e-08)
(5.33396e-09 -4.90912e-09 -4.20048e-08)
(5.33376e-09 4.90876e-09 -4.20052e-08)
(-4.06841e-09 3.88162e-09 -4.09021e-08)
(2.56952e-10 1.03338e-10 -3.70537e-08)
(-5.91647e-10 -1.91269e-09 -7.22473e-08)
(1.45449e-09 -1.3255e-09 -3.842e-08)
(1.44282e-08 6.58006e-09 -4.62306e-08)
(-1.45652e-08 6.83218e-09 -4.60224e-08)
(1.06721e-09 -1.0167e-08 -5.17047e-08)
(1.11372e-08 7.76589e-09 -4.41235e-08)
(-8.78276e-10 1.74415e-09 -5.16161e-08)
(2.00423e-11 2.01717e-12 -3.71638e-08)
(-1.53193e-09 -1.25674e-09 -3.83462e-08)
(-4.92741e-11 1.09982e-09 -5.3003e-08)
(5.73796e-11 -4.47426e-10 -7.28429e-08)
(1.41193e-09 -1.76488e-10 -7.2044e-08)
(1.21249e-09 -2.26228e-14 -7.60932e-08)
(1.41191e-09 1.75831e-10 -7.20428e-08)
(-8.80375e-10 -1.74665e-09 -5.16158e-08)
(-2.51273e-09 3.00603e-09 -3.83272e-08)
(-7.0488e-09 -6.2571e-09 -4.21211e-08)
(-1.77965e-09 5.42296e-10 -7.33521e-08)
(1.52059e-09 -6.75199e-09 -4.41568e-08)
(1.52118e-09 6.75395e-09 -4.4157e-08)
(-7.04945e-09 6.25802e-09 -4.2121e-08)
(-2.2841e-10 4.38368e-13 -5.50726e-08)
(4.45734e-09 -4.34042e-09 -4.12565e-08)
(-5.43904e-09 -4.83712e-09 -4.17683e-08)
(-5.44059e-09 4.8385e-09 -4.17681e-08)
(9.36161e-11 -1.84932e-09 -7.19978e-08)
(4.45891e-09 4.34198e-09 -4.12567e-08)
(-8.17875e-11 -6.80364e-10 -4.97811e-08)
(-8.34378e-10 2.76566e-13 -4.46161e-08)
(-1.10958e-09 -3.05129e-09 -4.37808e-08)
(-1.05611e-09 -1.40418e-09 -4.03768e-08)
(4.75962e-09 4.16961e-09 -4.65884e-08)
(-1.06244e-09 -1.04334e-09 -4.38022e-08)
(-2.51546e-10 5.51263e-13 -4.58169e-08)
(-7.76242e-09 4.16789e-13 -6.84847e-08)
(-4.96108e-13 -1.58765e-13 -6.81954e-08)
(-3.83167e-09 -7.63364e-09 -4.94349e-08)
(6.40635e-09 5.01102e-09 -6.37545e-08)
(5.80845e-09 1.28206e-08 -4.33521e-08)
(1.23982e-08 -3.2903e-09 -3.65256e-08)
(8.78568e-09 1.00945e-08 -4.53946e-08)
(-2.67363e-08 -1.5045e-08 -5.50568e-08)
(2.22077e-08 2.34393e-08 -9.84524e-08)
(-4.54695e-08 -3.08498e-08 -1.34097e-07)
(-4.5467e-08 3.08479e-08 -1.34097e-07)
(-9.30665e-10 4.5273e-09 -1.05633e-07)
(-5.69826e-08 4.51695e-08 -2.03077e-07)
(1.39518e-09 2.82494e-09 -1.54808e-07)
(7.95382e-08 -7.01602e-08 -2.99166e-07)
(-1.19452e-07 9.95167e-08 -4.39424e-07)
(1.29495e-09 1.71158e-09 -3.2963e-07)
(1.67725e-07 -1.45418e-07 -6.25465e-07)
(-2.40396e-07 2.04026e-07 -8.85264e-07)
(-6.71388e-11 -1.12673e-09 -6.53969e-07)
(3.27729e-07 -2.81383e-07 -1.21675e-06)
(-4.50314e-07 3.8636e-07 -1.65423e-06)
(-4.21377e-09 -8.80895e-09 -1.20254e-06)
(5.93401e-07 -5.04982e-07 -2.19371e-06)
(-7.7916e-07 6.7672e-07 -2.86311e-06)
(-1.42777e-08 -3.12603e-08 -2.04872e-06)
(1.00207e-06 -8.3847e-07 -3.6644e-06)
(-1.23863e-06 1.10073e-06 -4.59148e-06)
(-3.0521e-08 -9.71771e-08 -3.23301e-06)
(1.62238e-06 -1.28731e-06 -5.64094e-06)
(-1.7681e-06 1.66455e-06 -6.92831e-06)
(-1.00305e-07 -3.00275e-07 -4.90924e-06)
(2.88021e-06 -1.95523e-06 -7.74488e-06)
(4.77171e-07 -9.33826e-07 -5.44489e-06)
(3.47645e-06 -2.11465e-06 -7.07917e-06)
(3.47643e-06 2.11467e-06 -7.07913e-06)
(-3.19113e-07 -1.38195e-07 -7.62066e-06)
(8.11787e-07 -6.09974e-07 -7.75081e-06)
(-2.79074e-07 1.11284e-06 -6.83425e-06)
(1.13387e-06 9.91946e-07 -6.3171e-06)
(6.42075e-08 -1.435e-11 -9.18371e-06)
(-7.06096e-07 -6.96246e-07 -6.0231e-06)
(-7.06093e-07 6.96244e-07 -6.02314e-06)
(7.8053e-07 7.32014e-07 -6.07284e-06)
(-3.58401e-08 -9.83221e-12 -9.191e-06)
(-9.11815e-07 -8.79307e-07 -6.15023e-06)
(-9.118e-07 8.79301e-07 -6.15025e-06)
(2.46055e-07 3.60086e-07 -5.86263e-06)
(-3.01158e-07 -9.06561e-12 -9.09802e-06)
(-1.32009e-06 -2.32174e-06 -7.51611e-06)
(-1.32009e-06 2.3217e-06 -7.51607e-06)
(4.73704e-07 -1.48717e-06 -8.90323e-06)
(1.91257e-06 1.2597e-11 -1.26949e-05)
(4.73719e-07 1.48712e-06 -8.90326e-06)
(7.44033e-07 -1.1626e-06 -9.05088e-06)
(2.093e-06 7.37541e-07 -1.25514e-05)
(8.93643e-07 1.69975e-06 -9.03032e-06)
(1.20394e-06 1.19857e-06 -1.05057e-05)
(1.49543e-06 1.4902e-06 -8.91144e-06)
(-2.29021e-06 -2.27289e-06 -8.70043e-06)
(-1.32977e-06 1.58433e-06 -7.17048e-06)
(1.25393e-06 2.03539e-07 -8.33958e-06)
(8.64221e-07 1.33828e-07 -9.9577e-06)
(-5.95336e-09 1.46004e-08 -9.17707e-06)
(2.46065e-07 -3.60103e-07 -5.86263e-06)
(-1.46961e-07 -1.31619e-07 -5.611e-06)
(-3.90808e-07 -3.84555e-07 -9.00714e-06)
(1.58002e-06 -1.30119e-06 -7.20379e-06)
(-1.17859e-06 7.39481e-07 -9.05414e-06)
(7.34096e-07 2.06401e-06 -1.25519e-05)
(1.70247e-06 8.88871e-07 -9.03608e-06)
(9.73985e-07 9.73656e-07 -1.00081e-05)
(-5.23586e-07 -5.13301e-07 -9.1613e-06)
(-7.0011e-07 8.28806e-12 -9.25569e-06)
(-5.23556e-07 5.13327e-07 -9.16125e-06)
(-3.90827e-07 3.84554e-07 -9.00714e-06)
(-1.32973e-06 -1.58435e-06 -7.17045e-06)
(-2.29018e-06 2.27284e-06 -8.70046e-06)
(8.93666e-07 -1.69991e-06 -9.03007e-06)
(2.09308e-06 -7.37648e-07 -1.25516e-05)
(7.44088e-07 1.16256e-06 -9.0508e-06)
(1.25393e-06 -2.03595e-07 -8.33968e-06)
(8.6424e-07 -1.33844e-07 -9.95772e-06)
(9.74118e-07 -9.73565e-07 -1.00081e-05)
(1.70234e-06 -8.88936e-07 -9.03646e-06)
(7.33977e-07 -2.06398e-06 -1.25518e-05)
(-1.17861e-06 -7.3952e-07 -9.05426e-06)
(1.57996e-06 1.30117e-06 -7.20376e-06)
(1.92029e-07 -1.26123e-06 -8.33213e-06)
(1.46782e-06 -5.14708e-07 -8.96155e-06)
(-3.52296e-08 -1.90798e-06 -1.27042e-05)
(-1.5271e-06 -4.58315e-07 -8.91413e-06)
(2.31395e-06 1.22368e-06 -7.54179e-06)
(-3.38139e-08 2.95772e-07 -9.11041e-06)
(-4.06801e-07 -2.73172e-07 -5.85646e-06)
(-2.37598e-06 1.32835e-06 -7.52306e-06)
(-3.79229e-08 -2.77474e-07 -8.31367e-06)
(-2.77251e-07 -3.42638e-07 -8.42817e-06)
(1.91488e-08 -2.02444e-08 -4.708e-06)
(1.48981e-08 -2.90231e-08 -3.0975e-06)
(6.93051e-09 -3.15616e-08 -1.9011e-06)
(3.45035e-09 -2.42998e-08 -1.08105e-06)
(1.71324e-09 -1.58056e-08 -5.69433e-07)
(7.25923e-10 -9.28832e-09 -2.78368e-07)
(2.23879e-10 -5.04785e-09 -1.28062e-07)
(-1.45079e-09 -4.76374e-09 -1.22814e-07)
(4.20436e-08 -2.45582e-08 -1.2141e-07)
(-4.5753e-08 -2.08299e-08 -1.2035e-07)
(4.55882e-08 -1.86149e-08 -1.20487e-07)
(-4.18954e-08 -2.91756e-08 -1.21389e-07)
(5.80107e-08 4.9935e-08 -1.82666e-07)
(-9.18065e-08 -6.87532e-08 -2.74316e-07)
(1.28833e-07 1.06731e-07 -3.95664e-07)
(-1.91542e-07 -1.49489e-07 -5.76274e-07)
(2.6334e-07 2.13286e-07 -8.02654e-07)
(-3.71796e-07 -2.99399e-07 -1.12249e-06)
(4.97715e-07 3.95344e-07 -1.5076e-06)
(-6.69892e-07 -5.54599e-07 -2.02531e-06)
(8.71799e-07 6.77598e-07 -2.62097e-06)
(-1.11829e-06 -9.52566e-07 -3.38662e-06)
(1.4128e-06 1.07282e-06 -4.20819e-06)
(-1.70701e-06 -1.50211e-06 -5.2565e-06)
(-2.02195e-08 7.04372e-09 -4.72252e-06)
(1.44089e-06 -1.43369e-06 -5.07085e-06)
(1.45548e-06 1.69954e-06 -5.2397e-06)
(1.04243e-06 -1.86841e-06 -5.13016e-06)
(-7.63155e-07 1.59677e-06 -4.2028e-06)
(4.41375e-08 -7.43611e-12 -3.16884e-06)
(-7.63008e-07 -1.59676e-06 -4.20284e-06)
(6.6106e-07 1.23424e-06 -3.32914e-06)
(9.17496e-07 -1.11332e-06 -3.37969e-06)
(9.1103e-07 9.03831e-07 -3.29019e-06)
(-6.81513e-07 -6.66823e-07 -2.57466e-06)
(-6.60158e-07 8.81184e-07 -2.6282e-06)
(3.84149e-08 1.17549e-08 -1.89107e-06)
(5.33583e-07 5.28377e-07 -1.97503e-06)
(9.29623e-09 4.34995e-08 -1.88764e-06)
(8.71898e-07 -6.77538e-07 -2.62105e-06)
(-2.01827e-08 -5.60783e-08 -2.43065e-06)
(-1.00336e-06 -4.50098e-07 -2.61424e-06)
(9.74027e-07 -5.14045e-07 -2.60104e-06)
(-2.8552e-09 4.50661e-08 -1.92449e-06)
(-7.46661e-07 4.14164e-07 -2.0018e-06)
(6.89096e-07 4.52534e-07 -1.9995e-06)
(-9.15756e-07 -5.74793e-07 -2.61453e-06)
(-7.49306e-10 -6.06784e-08 -2.43038e-06)
(-1.24514e-06 7.09571e-07 -3.33968e-06)
(-5.83254e-09 4.59617e-08 -3.15635e-06)
(1.57568e-06 -8.07387e-07 -4.17298e-06)
(-1.88795e-06 1.10577e-06 -5.15889e-06)
(-1.071e-08 -2.24674e-08 -4.77437e-06)
(-2.41738e-06 -1.08635e-06 -6.14901e-06)
(-8.73844e-08 -5.04298e-08 -5.68866e-06)
(1.14838e-06 2.98927e-08 -6.23309e-06)
(-6.16074e-08 -1.02204e-06 -1.0339e-05)
(1.92071e-07 1.2612e-06 -8.33216e-06)
(-2.37601e-06 -1.3284e-06 -7.523e-06)
(-4.06779e-07 2.7314e-07 -5.85643e-06)
(6.73972e-08 8.60895e-08 -8.43431e-06)
(-3.8253e-08 -2.22114e-08 -6.0022e-06)
(-2.26864e-08 -1.12815e-11 -4.94012e-06)
(-1.95131e-08 -1.4495e-10 -4.64484e-06)
(-1.12454e-08 -1.40988e-08 -3.0653e-06)
(-5.36456e-09 -2.11776e-08 -1.88116e-06)
(-2.42536e-09 -1.78447e-08 -1.06933e-06)
(-1.09635e-09 -1.20691e-08 -5.62957e-07)
(-5.12754e-10 -7.23086e-09 -2.7514e-07)
(-2.42205e-10 -3.88166e-09 -1.26784e-07)
(5.78709e-11 4.47243e-10 -7.28429e-08)
(-4.78787e-11 -1.09993e-09 -5.30019e-08)
(-1.52971e-09 1.2558e-09 -3.83457e-08)
(9.36566e-11 1.84843e-09 -7.19968e-08)
(1.98426e-11 -1.98284e-12 -3.71628e-08)
(1.11373e-08 -7.76713e-09 -4.41235e-08)
(1.06648e-09 1.01668e-08 -5.17044e-08)
(-4.06112e-10 -5.36476e-09 -8.02449e-08)
(-1.79707e-08 7.43884e-09 -7.23271e-08)
(1.64719e-08 4.84513e-09 -7.22819e-08)
(-1.69171e-08 4.29963e-09 -7.21045e-08)
(1.70259e-08 8.63758e-09 -7.28535e-08)
(-8.27836e-09 6.45324e-09 -6.62575e-08)
(2.65863e-08 -1.89119e-09 -4.53745e-08)
(-1.01906e-08 -1.95347e-08 -7.84231e-08)
(2.79081e-08 4.11101e-08 -1.22846e-07)
(3.8551e-09 -6.90079e-10 -1.23164e-07)
(-4.81692e-08 -5.95847e-08 -1.87365e-07)
(-4.80623e-08 4.736e-08 -1.74758e-07)
(3.33393e-08 -3.06767e-08 -1.18044e-07)
(1.72833e-09 -4.78252e-09 -1.20999e-07)
(1.33846e-09 -5.13322e-09 -1.30958e-07)
(-2.09239e-09 5.73749e-09 -6.78626e-08)
(-3.30798e-12 5.74552e-09 -6.82002e-08)
(2.28261e-09 5.71935e-09 -6.75284e-08)
(5.03413e-09 3.74425e-09 -6.19846e-08)
(7.24408e-09 4.79017e-09 -6.76818e-08)
(-3.06892e-09 -1.67668e-09 -1.36187e-07)
(-1.31012e-09 6.05323e-10 -1.30734e-07)
(4.46482e-09 3.78224e-09 -8.80496e-08)
(-1.35394e-09 -5.10009e-09 -1.31176e-07)
(-5.148e-09 -1.70451e-08 -2.89524e-07)
(-7.01261e-09 -5.39303e-09 -2.91204e-07)
(-8.1517e-09 -5.82087e-09 -2.94592e-07)
(-1.65454e-08 -1.27871e-08 -6.0203e-07)
(-1.64789e-08 -1.52274e-08 -6.05408e-07)
(4.18332e-09 4.25901e-09 -4.29808e-07)
(3.2047e-09 3.5026e-09 -1.99587e-07)
(1.91671e-09 5.25376e-09 -1.92595e-07)
(-6.10962e-08 4.34608e-08 -1.81043e-07)
(6.55264e-08 3.82257e-08 -1.81957e-07)
(-1.01365e-07 -5.00278e-08 -2.71389e-07)
(1.01203e-07 -4.34314e-08 -2.71005e-07)
(-1.56708e-09 6.73805e-09 -1.82278e-07)
(-6.72673e-08 3.46544e-08 -1.81546e-07)
(-2.38575e-10 -5.31728e-09 -1.2416e-07)
(-5.66517e-11 -4.30173e-09 -1.31418e-07)
(6.34217e-11 -1.64218e-08 -2.89246e-07)
(3.11967e-10 -3.72267e-08 -6.02398e-07)
(-1.03788e-08 -3.74657e-08 -6.02066e-07)
(-1.87696e-08 -7.22706e-08 -1.15552e-06)
(-3.33809e-08 -3.25797e-08 -1.163e-06)
(-3.0912e-08 -2.46313e-08 -1.14327e-06)
(-5.32891e-08 -4.30942e-08 -2.01333e-06)
(-6.28565e-08 -6.44946e-08 -2.06732e-06)
(3.1254e-09 2.32296e-09 -1.57538e-06)
(4.85036e-09 4.4527e-09 -8.55663e-07)
(5.78378e-09 1.13131e-08 -8.30695e-07)
(-2.77705e-07 1.79768e-07 -7.98855e-07)
(2.95705e-07 1.63263e-07 -7.97492e-07)
(-4.13855e-07 -2.2304e-07 -1.11066e-06)
(4.14341e-07 -1.92464e-07 -1.10617e-06)
(-5.9038e-09 2.26025e-08 -7.74793e-07)
(-3.03671e-07 1.42727e-07 -7.98485e-07)
(2.12681e-07 -9.53066e-08 -5.68614e-07)
(-3.16361e-09 1.28724e-08 -3.89796e-07)
(-1.48944e-07 7.24033e-08 -3.93278e-07)
(-4.27649e-10 -1.04458e-08 -2.73289e-07)
(1.45074e-07 8.19623e-08 -3.9338e-07)
(-2.12623e-07 -1.10542e-07 -5.70347e-07)
(6.89804e-10 1.36193e-08 -3.90422e-07)
(-1.35959e-07 9.07064e-08 -3.93251e-07)
(9.38659e-08 -5.70483e-08 -2.73106e-07)
(5.06937e-10 7.16313e-09 -1.82544e-07)
(1.57322e-10 1.29558e-09 -2.0666e-07)
(-3.26934e-09 -3.46674e-09 -1.98869e-07)
(-5.69748e-08 -4.51625e-08 -2.03076e-07)
(1.90232e-09 5.9718e-10 -1.02364e-07)
(3.52223e-08 3.22066e-08 -1.37805e-07)
(1.46429e-09 -3.48541e-09 -7.1442e-08)
(-3.09178e-08 -2.05159e-08 -8.70389e-08)
(-1.26194e-08 -4.2924e-09 -4.38543e-08)
(7.70155e-09 -2.20907e-09 -7.29715e-08)
(-2.10501e-09 -1.11713e-09 -8.85915e-08)
(2.17608e-13 1.20596e-09 -9.13759e-08)
(-1.32133e-10 4.31058e-09 -8.41089e-08)
(9.49214e-10 5.0225e-09 -8.65704e-08)
(-1.44971e-09 4.80674e-09 -8.65396e-08)
(2.3718e-10 -5.55504e-09 -8.00922e-08)
(-4.51109e-09 3.7753e-09 -9.02127e-08)
(-3.98428e-09 3.7843e-09 -6.21782e-08)
(-1.16987e-09 2.15658e-09 -6.70143e-08)
(7.26594e-09 -1.32515e-09 -1.35187e-07)
(-3.58116e-10 -2.7942e-10 -1.28492e-07)
(-3.93286e-09 3.61107e-09 -2.02542e-07)
(-2.81608e-09 4.86767e-09 -1.9234e-07)
(5.76577e-09 -1.71381e-08 -2.88551e-07)
(1.23005e-08 -3.79175e-08 -6.00519e-07)
(2.30726e-08 -7.37552e-08 -1.15459e-06)
(6.64237e-10 -7.32067e-08 -1.1584e-06)
(9.93414e-10 -1.35117e-07 -2.0582e-06)
(-3.198e-08 -1.30502e-07 -2.04958e-06)
(-5.53011e-08 -2.32651e-07 -3.37064e-06)
(-1.17527e-07 -1.31365e-07 -3.4117e-06)
(-8.60672e-08 -7.11293e-08 -3.28903e-06)
(-1.62894e-07 -1.443e-07 -4.97163e-06)
(-2.7104e-07 -3.1621e-07 -5.27069e-06)
(-4.13323e-08 -3.33541e-08 -4.25278e-06)
(-6.22925e-09 -6.67427e-09 -2.6881e-06)
(1.04038e-08 1.46837e-08 -2.63173e-06)
(-9.1573e-07 5.74792e-07 -2.61445e-06)
(9.73971e-07 5.141e-07 -2.60097e-06)
(-1.24517e-06 -7.09537e-07 -3.33966e-06)
(1.24264e-06 -6.21676e-07 -3.31441e-06)
(-2.02233e-08 5.60809e-08 -2.43066e-06)
(-1.00329e-06 4.50113e-07 -2.6142e-06)
(7.47139e-07 -3.59009e-07 -1.99125e-06)
(-1.07758e-08 3.67117e-08 -1.42632e-06)
(-5.72917e-07 2.62725e-07 -1.50114e-06)
(-1.42847e-09 -3.1049e-08 -1.08537e-06)
(5.57347e-07 3.01351e-07 -1.49703e-06)
(-7.46663e-07 -4.14134e-07 -2.00177e-06)
(4.83462e-10 3.93722e-08 -1.42714e-06)
(-5.24025e-07 3.33088e-07 -1.50168e-06)
(3.82878e-07 -2.44855e-07 -1.11177e-06)
(7.74874e-10 2.40284e-08 -7.75736e-07)
(3.71041e-10 4.25774e-09 -8.65022e-07)
(2.82988e-10 2.43261e-09 -4.38379e-07)
(-5.96715e-09 -6.74899e-09 -4.2045e-07)
(-1.19446e-07 -9.95035e-08 -4.39414e-07)
(1.05677e-09 6.44307e-10 -2.26358e-07)
(7.95386e-08 7.01589e-08 -2.99155e-07)
(1.39813e-09 -2.82538e-09 -1.54806e-07)
(6.16618e-09 -1.68214e-09 -1.58203e-07)
(-9.36141e-08 -6.97533e-08 -2.936e-07)
(1.25914e-07 1.09106e-07 -4.28203e-07)
(-1.92263e-07 -1.47438e-07 -6.10188e-07)
(-1.92264e-07 1.47442e-07 -6.10181e-07)
(-3.05205e-10 3.88266e-09 -4.66424e-07)
(2.57669e-07 -2.18256e-07 -8.58133e-07)
(4.94165e-09 4.47344e-09 -6.65382e-07)
(-3.71553e-07 2.88987e-07 -1.18225e-06)
(-4.30108e-10 2.76481e-09 -8.88452e-07)
(4.85574e-07 -4.05765e-07 -1.60049e-06)
(2.04265e-09 7.17272e-09 -1.22143e-06)
(-6.64338e-07 5.23638e-07 -2.12472e-06)
(5.37262e-11 -4.15677e-09 -1.56953e-06)
(8.47441e-07 -6.97416e-07 -2.76635e-06)
(-1.26359e-08 8.72606e-09 -2.07543e-06)
(-1.08433e-06 8.77297e-07 -3.53955e-06)
(7.09204e-09 -3.3954e-08 -2.57001e-06)
(1.38147e-06 -1.10279e-06 -4.41964e-06)
(-7.75901e-08 -1.82693e-11 -3.26152e-06)
(-1.57584e-06 1.36007e-06 -5.48079e-06)
(5.15814e-08 -1.59213e-07 -3.89761e-06)
(2.16767e-06 -1.56069e-06 -6.41617e-06)
(-3.65558e-07 -1.31923e-07 -4.78462e-06)
(-1.81315e-06 1.86069e-06 -8.01309e-06)
(-2.45837e-07 -3.65493e-11 -6.60294e-06)
(-1.81311e-06 -1.86069e-06 -8.01308e-06)
(4.77164e-07 9.33668e-07 -5.44489e-06)
(2.88024e-06 1.95533e-06 -7.74473e-06)
(-1.0028e-07 3.00145e-07 -4.9092e-06)
(-1.768e-06 -1.66448e-06 -6.92829e-06)
(-6.96868e-08 -1.80652e-08 -3.90512e-06)
(1.6223e-06 1.28726e-06 -5.64084e-06)
(-3.05099e-08 9.71046e-08 -3.23297e-06)
(-1.23861e-06 -1.10067e-06 -4.59144e-06)
(-3.33987e-08 -3.96405e-09 -2.58823e-06)
(1.00211e-06 8.38568e-07 -3.66435e-06)
(-1.42522e-08 3.11978e-08 -2.04872e-06)
(-7.79037e-07 -6.76644e-07 -2.86312e-06)
(-1.39616e-08 -1.39355e-09 -1.58012e-06)
(5.93429e-07 5.0504e-07 -2.19368e-06)
(-4.19311e-09 8.74846e-09 -1.20251e-06)
(-4.50291e-07 -3.86342e-07 -1.65423e-06)
(-5.14966e-09 -1.37607e-10 -8.92924e-07)
(3.27725e-07 2.81397e-07 -1.2167e-06)
(-5.05489e-11 1.10577e-09 -6.53954e-07)
(-2.40384e-07 -2.04011e-07 -8.85265e-07)
(-9.50636e-10 4.59045e-10 -4.67089e-07)
(1.67725e-07 1.45425e-07 -6.25442e-07)
(1.30535e-09 -1.7084e-09 -3.29622e-07)
(5.5944e-09 -2.60881e-09 -3.35945e-07)
(-1.06103e-08 -1.09587e-08 -4.37864e-07)
(-6.50668e-09 -5.45723e-09 -2.11504e-07)
(-3.62686e-09 -1.81462e-09 -1.01066e-07)
(7.01116e-09 3.44852e-09 -5.93412e-08)
(2.50948e-10 -2.33649e-12 -5.34839e-08)
(-6.44371e-09 -2.95051e-13 -7.4185e-08)
(-1.38722e-08 -8.99913e-12 -1.44646e-07)
(-2.49438e-08 7.82208e-13 -2.99543e-07)
(-4.32209e-08 1.03464e-11 -6.01061e-07)
(-7.08986e-08 2.61938e-11 -1.13241e-06)
(-1.02477e-07 6.32808e-11 -1.98311e-06)
(-1.09921e-07 2.6532e-10 -3.21705e-06)
(-3.39452e-08 7.72404e-11 -4.81411e-06)
(1.05812e-07 -3.29291e-11 -6.42701e-06)
(-1.71156e-07 -1.1361e-10 -7.67928e-06)
(-1.2902e-06 6.0683e-07 -7.48817e-06)
(-1.29021e-06 -6.06918e-07 -7.48816e-06)
(-1.3258e-06 -8.42378e-07 -6.83777e-06)
(-1.103e-06 -8.30108e-07 -8.11927e-06)
(-3.64124e-07 -2.12475e-07 -6.18482e-06)
(-1.47282e-07 -4.52772e-07 -5.17993e-06)
(-6.03457e-07 -1.40063e-06 -7.80442e-06)
(9.34256e-07 3.91994e-06 -5.51161e-06)
(1.44169e-06 -2.95462e-07 -6.35808e-06)
(3.2616e-08 6.30589e-08 -5.68718e-06)
(1.26274e-08 -5.72313e-09 -5.81912e-06)
(7.80932e-08 -3.63644e-08 -5.66072e-06)
(-3.65504e-07 1.31923e-07 -4.7846e-06)
(2.16754e-06 1.56078e-06 -6.41608e-06)
(5.16334e-08 1.59114e-07 -3.89755e-06)
(-1.57583e-06 -1.36002e-06 -5.48079e-06)
(-1.56415e-07 -1.43749e-11 -4.56737e-06)
(-7.4271e-08 -1.39793e-11 -4.72083e-06)
(-6.5289e-08 -1.51333e-11 -3.10661e-06)
(7.16359e-09 3.39318e-08 -2.56995e-06)
(-1.08432e-06 -8.77289e-07 -3.53957e-06)
(1.38142e-06 1.1028e-06 -4.41952e-06)
(-7.75904e-08 9.23697e-12 -3.26156e-06)
(-9.11734e-09 -2.88451e-08 -4.00991e-06)
(-1.88606e-08 -2.51209e-08 -2.55883e-06)
(-1.26603e-08 -8.74917e-09 -2.07542e-06)
(8.47323e-07 6.97427e-07 -2.76628e-06)
(8.7124e-11 4.13505e-09 -1.56951e-06)
(-6.64288e-07 -5.23647e-07 -2.12475e-06)
(-2.56106e-08 7.74576e-12 -1.83222e-06)
(-4.86637e-08 -9.35553e-13 -1.90674e-06)
(-3.22118e-08 -3.69932e-12 -1.08534e-06)
(-1.89381e-08 -4.34906e-12 -5.72975e-07)
(-2.92521e-10 -3.9007e-09 -4.66415e-07)
(2.57662e-07 2.18259e-07 -8.58099e-07)
(-3.71551e-07 -2.88983e-07 -1.18228e-06)
(4.85553e-07 4.05788e-07 -1.60044e-06)
(2.04651e-09 -7.16293e-09 -1.2214e-06)
(-1.55472e-08 -1.84446e-08 -1.51221e-06)
(-1.0231e-08 -1.18067e-08 -8.28009e-07)
(1.16202e-09 -3.85414e-12 -6.00439e-07)
(6.27085e-10 -1.87774e-12 -2.93918e-07)
(2.88857e-10 6.70935e-14 -1.36447e-07)
(-4.27062e-09 -4.15008e-13 -1.31258e-07)
(-9.29594e-10 -4.52948e-09 -1.05634e-07)
(5.63871e-08 5.14192e-08 -2.02378e-07)
(2.68461e-09 -7.17803e-13 -1.26147e-07)
(5.63917e-08 -5.14212e-08 -2.02379e-07)
(6.16135e-09 1.68308e-09 -1.58204e-07)
(-9.36102e-08 6.97562e-08 -2.936e-07)
(-4.25296e-10 3.95741e-09 -2.27997e-07)
(1.2593e-07 -1.09111e-07 -4.28222e-07)
(5.59979e-09 2.60622e-09 -3.3595e-07)
(-5.9671e-09 6.74511e-09 -4.20453e-07)
(-9.77179e-09 6.52599e-13 -2.81506e-07)
(-4.23083e-10 -3.9666e-09 -2.27989e-07)
(2.33493e-10 1.34652e-12 -2.6796e-07)
(-3.26856e-09 3.46553e-09 -1.98869e-07)
(-2.10445e-09 1.11687e-09 -8.85923e-08)
(-3.09193e-08 2.0517e-08 -8.70396e-08)
(1.46438e-09 3.48271e-09 -7.1444e-08)
(3.52217e-08 -3.22067e-08 -1.37809e-07)
(7.70059e-09 2.20916e-09 -7.29742e-08)
(2.2207e-08 -2.34392e-08 -9.8453e-08)
(-3.8315e-09 7.63478e-09 -4.94339e-08)
(-2.67369e-08 1.50449e-08 -5.50568e-08)
(2.91424e-09 7.11946e-13 -6.4552e-08)
(8.78623e-09 -1.0094e-08 -4.53959e-08)
(1.23991e-08 3.2921e-09 -3.65258e-08)
(5.80674e-09 -1.28205e-08 -4.3351e-08)
(1.53498e-08 -3.46578e-09 -4.57199e-08)
(6.40753e-09 -5.01088e-09 -6.37571e-08)
(2.49886e-09 -3.96388e-10 -4.71223e-08)
(-4.43886e-09 -2.63885e-09 -4.25219e-08)
(2.68634e-09 -1.52367e-09 -4.98473e-08)
(-1.06236e-09 1.04306e-09 -4.38007e-08)
(-1.10899e-09 3.05081e-09 -4.37786e-08)
(4.75953e-09 -4.17085e-09 -4.65893e-08)
(-1.05657e-09 1.4044e-09 -4.03731e-08)
(7.19578e-10 -4.31932e-09 -4.81644e-08)
(-2.98899e-13 3.05666e-09 -4.43289e-08)
(7.71174e-13 1.72356e-13 -4.54673e-08)
(-3.47901e-13 -3.05701e-09 -4.43291e-08)
(-1.95714e-11 -1.55789e-09 -4.04638e-08)
(2.2645e-11 8.44169e-09 -6.354e-08)
(7.19858e-10 4.3191e-09 -4.81653e-08)
(-8.12574e-11 6.80998e-10 -4.97821e-08)
(2.68652e-09 1.52439e-09 -4.9848e-08)
(-1.06806e-09 -1.32903e-09 -4.05373e-08)
(-4.43967e-09 2.63997e-09 -4.25223e-08)
(2.49844e-09 3.96163e-10 -4.71214e-08)
(-5.58187e-11 6.96896e-10 -4.99462e-08)
(1.34899e-09 -2.91931e-09 -4.37716e-08)
(1.15879e-09 -1.3076e-09 -4.0536e-08)
(-8.23194e-10 4.32115e-09 -4.84168e-08)
(-4.76032e-09 4.06857e-09 -4.69301e-08)
(1.33277e-09 -8.46343e-10 -4.40939e-08)
(-2.70104e-09 1.13207e-09 -4.87149e-08)
(4.90382e-09 6.52438e-09 -3.93877e-08)
(1.50083e-08 -8.43807e-09 -5.17848e-08)
(-9.75259e-09 9.2984e-09 -5.21358e-08)
(2.69824e-09 -4.47941e-10 -7.54909e-08)
(1.22624e-09 1.78764e-13 -4.45462e-08)
(7.10749e-10 9.0208e-13 -5.48712e-08)
(9.34788e-10 4.15532e-13 -7.48078e-08)
(-6.00782e-11 -1.53033e-13 -7.59985e-08)
(-1.06201e-10 4.50125e-13 -5.5908e-08)
(-2.89664e-10 -6.69862e-13 -1.36511e-07)
(-6.09171e-10 -3.67181e-13 -2.93844e-07)
(-1.25385e-09 4.49953e-13 -6.00379e-07)
(-2.69655e-09 -3.08968e-12 -1.13942e-06)
(2.01546e-09 -2.04899e-12 -1.13952e-06)
(3.82368e-09 7.67698e-12 -2.00368e-06)
(9.14696e-09 7.40715e-12 -3.26362e-06)
(2.25912e-08 -9.46162e-12 -4.94849e-06)
(-1.32432e-07 -1.48962e-11 -8.05092e-06)
(-4.1111e-07 1.79849e-13 -7.4517e-06)
(1.57269e-06 -5.31903e-11 -1.16123e-05)
(-2.79072e-07 -1.1129e-06 -6.83422e-06)