/*--------------------------------*- C++ -*----------------------------------*\
| =========                 |                                                 |
| \\      /  F ield         | OpenFOAM: The Open Source CFD Toolbox           |
|  \\    /   O peration     | Version:  2306                                  |
|   \\  /    A nd           | Website:  www.openfoam.com                      |
|    \\/     M anipulation  |                                                 |
\*---------------------------------------------------------------------------*/
FoamFile
{
    version     2.0;
    format      ascii;
    arch        "LSB;label=32;scalar=64";
    class       volScalarField;
    location    "1.1";
    object      gradTz;
}
// * * * * * * * * * * * * * * * * * * * * * * * * * * * * * * * * * * * * * //

dimensions      [0 -1 0 1 0 0 0];

internalField   nonuniform List<scalar> 
2658
(
-0.0704301
-0.0671842
-0.0448222
-0.0403981
-0.0518285
-0.0529579
-0.0447844
-0.0433405
-0.0403642
-0.0528081
-0.0557212
-0.0461778
-0.0634303
-0.0598872
-0.0611895
-0.0628511
-0.0612105
-0.062713
-0.06108
-0.0590796
-0.062356
-0.0561801
-0.0639256
-0.0475013
-0.0750167
-0.0622988
-0.0561222
-0.0651349
-0.0670615
-0.0559728
-0.0670608
-0.0561221
-0.0622982
-0.0639248
-0.0750166
-0.0475005
-0.05928
-0.0862597
-0.0561794
-0.0623576
-0.0590804
-0.0610801
-0.0627124
-0.0884047
-0.0538589
-0.0532739
-0.0557214
-0.0883668
-0.062852
-0.0611899
-0.0598866
-0.0634309
-0.0568371
-0.0895974
-0.0634875
-0.0612625
-0.0883654
-0.0535138
-0.0480192
-0.0627774
-0.0883664
-0.0612633
-0.0634882
-0.0895977
-0.0557459
-0.0462696
-0.0555798
-0.0485725
-0.0523278
-0.0523266
-0.0409184
-0.0438465
-0.0326348
-0.0360746
-0.0265747
-0.0357235
-0.0359682
-0.0265364
-0.0289455
-0.0283287
-0.0359705
-0.0326171
-0.0436156
-0.044927
-0.0380513
-0.0249274
-0.0152654
-0.00866859
-0.00456138
-0.0022287
-0.00102537
-0.000614427
-0.000441762
-0.000375771
-0.000374455
-0.000443668
-0.000367052
-0.000543084
-0.000366996
-0.000370845
-0.00054477
-0.000375518
-0.00043614
-0.00044937
-0.000382038
-0.000444966
-0.000327588
-0.00062694
-0.000346477
-0.000487439
-0.000448969
-0.000369397
-0.000498196
-0.000369384
-0.000448973
-0.000487455
-0.000382058
-0.000444968
-0.000436142
-0.000449371
-0.000375485
-0.000544727
-0.000370839
-0.000366986
-0.00039335
-0.000395138
-0.000375759
-0.000443691
-0.000367052
-0.000374468
-0.000546993
-0.000374085
-0.000447646
-0.000372057
-0.000486213
-0.000363352
-0.000358673
-0.000457815
-0.000382151
-0.000382163
-0.000358657
-0.00036335
-0.000389685
-0.000403287
-0.000503996
-0.000403103
-0.000483746
-0.000495447
-0.000333923
-0.000335546
-0.000310863
-0.000450864
-0.000468715
-0.000280361
-0.000391688
-0.000377052
-0.000343379
-0.000372388
-0.000342775
-0.000367349
-0.000377988
-0.000348809
-0.000378108
-0.000365612
-0.000338933
-0.00036834
-0.000339237
-0.000390772
-0.000629697
-0.000634679
-0.00105769
-0.00164055
-0.00244185
-0.00355885
-0.00513187
-0.00721076
-0.00998981
-0.0135292
-0.0180006
-0.0235063
-0.0300374
-0.0377796
-0.0464904
-0.0548623
-0.053033
-0.0520211
-0.0525557
-0.0528074
-0.0518278
-0.0403974
-0.0529585
-0.055579
-0.0462696
-0.0557459
-0.0461779
-0.0747118
-0.0380512
-0.0249273
-0.0152654
-0.00866852
-0.00456132
-0.00222865
-0.00102534
-0.000614429
-0.000441765
-0.000316698
-0.000349584
-0.000617493
-0.000359015
-0.000359018
-0.00034959
-0.000316698
-0.000617498
-0.000328376
-0.000395133
-0.000393354
-0.00044192
-0.000377124
-0.000441163
-0.000317639
-0.000327746
-0.000453017
-0.000622589
-0.000615761
-0.000650369
-0.00061575
-0.000441161
-0.000327583
-0.000360009
-0.000626941
-0.000377409
-0.00037741
-0.000360009
-0.000470706
-0.00035262
-0.000356994
-0.000356992
-0.000615366
-0.000352621
-0.00042548
-0.000381334
-0.000374195
-0.000345101
-0.000398191
-0.000374377
-0.000391598
-0.000585339
-0.000582867
-0.00042252
-0.00054491
-0.000370531
-0.000312184
-0.000387988
-0.000470571
-0.000841474
-0.00114613
-0.00114613
-0.00090285
-0.0017357
-0.00132314
-0.00255697
-0.00375576
-0.00281735
-0.00534586
-0.00756636
-0.00558948
-0.0103995
-0.0141387
-0.0102781
-0.0187496
-0.0244711
-0.0175104
-0.0313197
-0.0392434
-0.0276325
-0.0482132
-0.0592163
-0.0419593
-0.0661956
-0.0465375
-0.0605057
-0.0605054
-0.0651339
-0.0662462
-0.0584124
-0.0539923
-0.0784932
-0.0514795
-0.0514799
-0.0519046
-0.0785555
-0.052566
-0.0525662
-0.050108
-0.0777609
-0.0642402
-0.0642399
-0.076096
-0.108503
-0.0760962
-0.077358
-0.107277
-0.0771822
-0.0897923
-0.0761662
-0.0743626
-0.0612861
-0.0712784
-0.0851086
-0.0784365
-0.0501079
-0.0479573
-0.0769841
-0.0615708
-0.0773858
-0.107282
-0.0772315
-0.0855393
-0.0783017
-0.0791085
-0.0783013
-0.0769841
-0.0612859
-0.0743629
-0.0771801
-0.107278
-0.0773572
-0.0712793
-0.0851087
-0.0855394
-0.0772347
-0.10728
-0.0773868
-0.0615706
-0.0712148
-0.0765945
-0.108583
-0.0761891
-0.0644597
-0.0778667
-0.0500552
-0.0642997
-0.071057
-0.0720356
-0.0402393
-0.0264743
-0.0162488
-0.00923973
-0.00486695
-0.00237921
-0.00109455
-0.00104969
-0.00103769
-0.00102864
-0.0010298
-0.00103752
-0.00156124
-0.00234458
-0.00338175
-0.00492542
-0.00686029
-0.00959394
-0.0128855
-0.0173103
-0.0224015
-0.0289455
-0.0359674
-0.0449274
-0.0403634
-0.0433406
-0.0447838
-0.0438475
-0.0359213
-0.0270841
-0.0359217
-0.0284542
-0.0288863
-0.0281213
-0.0220056
-0.0224633
-0.016163
-0.0168806
-0.0161337
-0.0224021
-0.0207748
-0.022344
-0.0222311
-0.0164486
-0.0171094
-0.0170897
-0.0223464
-0.0207725
-0.0285443
-0.0269773
-0.0356665
-0.0440931
-0.0408066
-0.0525556
-0.048621
-0.0532743
-0.0883671
-0.0712151
-0.0642991
-0.050055
-0.0720881
-0.0513008
-0.0422232
-0.0396995
-0.0261992
-0.0160783
-0.00913956
-0.0048116
-0.00235162
-0.00108362
-0.000622589
-0.000453008
-0.000327741
-0.000615357
-0.00031763
-0.000377124
-0.000441918
-0.000685854
-0.00061818
-0.000617794
-0.000616278
-0.000622679
-0.000566303
-0.000387817
-0.000670283
-0.00104997
-0.00105268
-0.00160141
-0.00149366
-0.00100892
-0.00103418
-0.0011193
-0.000580022
-0.000582907
-0.000577166
-0.000529783
-0.000578477
-0.00116399
-0.00111738
-0.000752561
-0.00112116
-0.00247456
-0.00248892
-0.00251788
-0.00514555
-0.00517443
-0.00367357
-0.00170587
-0.00164611
-0.00154738
-0.00155519
-0.00231956
-0.00231628
-0.00155794
-0.00155168
-0.0010612
-0.00112323
-0.00247219
-0.0051487
-0.00514586
-0.0098762
-0.00994015
-0.00977158
-0.0172079
-0.0176694
-0.0134647
-0.00731336
-0.00709995
-0.00682782
-0.00681617
-0.00949285
-0.00945445
-0.00662216
-0.00682466
-0.00485995
-0.00333159
-0.00336135
-0.00233581
-0.00336222
-0.00487476
-0.00333694
-0.00336112
-0.00233424
-0.0015602
-0.00176633
-0.00169973
-0.00173569
-0.000874904
-0.00117782
-0.000610615
-0.000743922
-0.000374823
-0.000623688
-0.000757192
-0.000780991
-0.00071888
-0.000739918
-0.000739655
-0.000684549
-0.000771049
-0.000531438
-0.000572772
-0.00115545
-0.00109822
-0.00173113
-0.00164393
-0.00246625
-0.00513264
-0.00986832
-0.00990088
-0.0175915
-0.0175178
-0.0288089
-0.0291598
-0.0281114
-0.0424925
-0.0450487
-0.0363486
-0.0229752
-0.0224934
-0.0223457
-0.0222305
-0.0285441
-0.0283283
-0.0207749
-0.0223436
-0.0170192
-0.0121907
-0.0128303
-0.0092767
-0.0127951
-0.0171092
-0.0121978
-0.0128349
-0.00950227
-0.00663022
-0.00739335
-0.00374683
-0.00359359
-0.00375567
-0.00193468
-0.00255688
-0.00132313
-0.00135216
-0.0025094
-0.00365985
-0.00521529
-0.00521522
-0.00398653
-0.00733447
-0.00568703
-0.0101047
-0.00759361
-0.0136794
-0.0104396
-0.01816
-0.0134148
-0.023644
-0.0177387
-0.0302526
-0.0219659
-0.0377747
-0.0278762
-0.0468444
-0.0333129
-0.0548391
-0.0408942
-0.0684879
-0.0564354
-0.0684879
-0.0465375
-0.0661943
-0.041959
-0.0592162
-0.0333771
-0.0482123
-0.0276322
-0.0392431
-0.0221216
-0.0313192
-0.0175104
-0.0244711
-0.0135053
-0.0187494
-0.0102778
-0.0141387
-0.00763183
-0.0103992
-0.00558935
-0.00756637
-0.00399221
-0.00534566
-0.00281728
-0.00287132
-0.00374243
-0.00180773
-0.000863809
-0.00050719
-0.000457127
-0.00063406
-0.00123629
-0.0025602
-0.00513727
-0.00967869
-0.0169497
-0.0274961
-0.0411463
-0.0549317
-0.0656349
-0.0640015
-0.0640014
-0.0584425
-0.0693954
-0.0528617
-0.0442729
-0.0667045
-0.0471078
-0.0543426
-0.0486083
-0.0497361
-0.0483822
-0.040894
-0.0548383
-0.0333124
-0.0468444
-0.0390374
-0.040349
-0.0265522
-0.0219654
-0.0302527
-0.0377737
-0.0278766
-0.0342727
-0.0218703
-0.0177386
-0.0236434
-0.0134146
-0.0181603
-0.01566
-0.0162969
-0.00927637
-0.00489722
-0.00398646
-0.00733418
-0.0101049
-0.013679
-0.0104393
-0.0129249
-0.007077
-0.00513196
-0.00251212
-0.00116621
-0.00112186
-0.000902852
-0.00172973
-0.00107818
-0.00172974
-0.00135217
-0.0025094
-0.00194869
-0.00366002
-0.00287136
-0.00359362
-0.00240603
-0.00194862
-0.00229025
-0.00169973
-0.000757199
-0.000743928
-0.000610632
-0.00117786
-0.000623711
-0.000841478
-0.000422512
-0.000470571
-0.000551727
-0.000387999
-0.000312186
-0.000370522
-0.000390768
-0.000544933
-0.000402755
-0.000363435
-0.000426045
-0.000374365
-0.000374176
-0.000398199
-0.000345069
-0.000411662
-0.00037888
-0.000388609
-0.000378881
-0.000345844
-0.000543077
-0.000411669
-0.000425488
-0.000426051
-0.000346472
-0.000363438
-0.000402747
-0.000426891
-0.000374116
-0.000346461
-0.000413819
-0.000401112
-0.000376871
-0.000416366
-0.000336647
-0.000442605
-0.000445605
-0.000645221
-0.000380736
-0.000468985
-0.000639383
-0.00064956
-0.000477846
-0.00116676
-0.00251149
-0.00513144
-0.00973862
-0.0097395
-0.0171255
-0.0278942
-0.0422948
-0.0688113
-0.0636897
-0.0992506
-0.0584121
-0.0662476
-0.0925904
-0.0770321
-0.0770301
-0.0925908
-0.0980508
-0.058363
-0.0786354
-0.0756356
-0.0773271
-0.0486748
-0.0625266
-0.0705372
-0.0779563
-0.107691
-0.0782171
-0.0907786
-0.0739218
-0.0843237
-0.0778462
-0.079803
-0.080261
-0.0858247
-0.10298
-0.0802636
-0.098051
-0.0786368
-0.0583623
-0.0512771
-0.0773267
-0.062526
-0.0486745
-0.0494167
-0.0778668
-0.0644609
-0.076188
-0.108582
-0.0765954
-0.084953
-0.0794434
-0.079803
-0.0806047
-0.0797108
-0.0512768
-0.074965
-0.0773339
-0.084374
-0.079445
-0.0776068
-0.0849529
-0.0767417
-0.0784367
-0.0479574
-0.0720881
-0.0513008
-0.0486208
-0.0520216
-0.0444287
-0.0289591
-0.0357748
-0.0359904
-0.0356656
-0.0440937
-0.0436149
-0.0326172
-0.0359702
-0.0269766
-0.0359189
-0.0289616
-0.0175501
-0.0225543
-0.01314
-0.00709875
-0.00354688
-0.0035506
-0.00489081
-0.00479906
-0.00373357
-0.0032609
-0.00230074
-0.00341795
-0.00492305
-0.00475182
-0.00689423
-0.00664866
-0.00482443
-0.00473365
-0.00937711
-0.00910629
-0.0129249
-0.0125577
-0.00908464
-0.0168804
-0.0161628
-0.0224634
-0.0220055
-0.0161335
-0.028121
-0.0265745
-0.036075
-0.0357231
-0.0265364
-0.0376716
-0.0446184
-0.0671676
-0.0666856
-0.0612121
-0.0518282
-0.0482508
-0.0553943
-0.0449924
-0.0448219
-0.0291593
-0.0176921
-0.00996416
-0.00520231
-0.00252146
-0.00244236
-0.00358616
-0.00334026
-0.00339189
-0.0023718
-0.00339207
-0.004887
-0.00487646
-0.00685149
-0.00685126
-0.00488715
-0.00479903
-0.00235163
-0.00109525
-0.000799919
-0.000716766
-0.000736608
-0.000659776
-0.000491078
-0.000659846
-0.00108029
-0.00109994
-0.00158509
-0.00158494
-0.00108038
-0.000801001
-0.000792692
-0.000459099
-0.000459069
-0.000364929
-0.000421755
-0.000792729
-0.00067031
-0.000387791
-0.000566316
-0.00100892
-0.00105274
-0.00149378
-0.00160135
-0.00105006
-0.000736623
-0.000799923
-0.000780997
-0.00109456
-0.000874912
-0.0010577
-0.00104969
-0.0015474
-0.0015602
-0.00231958
-0.0023359
-0.00336147
-0.00333168
-0.00486
-0.00492549
-0.00473389
-0.00664899
-0.00689424
-0.0047521
-0.00482452
-0.00326114
-0.00341791
-0.00230086
-0.00230388
-0.00228376
-0.00338187
-0.00234461
-0.00231631
-0.00155171
-0.00155799
-0.00156131
-0.00103423
-0.00103753
-0.00102981
-0.00106121
-0.00155522
-0.00102865
-0.0010377
-0.000618182
-0.000718874
-0.000617789
-0.000367661
-0.000616292
-0.000716761
-0.000622669
-0.000339975
-0.000367346
-0.000377983
-0.000684544
-0.000739684
-0.000739929
-0.000752591
-0.000578489
-0.000507201
-0.000863824
-0.00180777
-0.00116398
-0.00251809
-0.00374253
-0.0073115
-0.0051459
-0.00977215
-0.0132968
-0.0132966
-0.00731129
-0.00568689
-0.0224141
-0.0224145
-0.0172085
-0.0281117
-0.034932
-0.0349308
-0.0493639
-0.0493646
-0.0424926
-0.0584433
-0.069403
-0.0528618
-0.0548643
-0.0405509
-0.0530329
-0.0486084
-0.053859
-0.0482507
-0.0710571
-0.0720357
-0.0402396
-0.0264745
-0.0162489
-0.00923985
-0.004867
-0.00237924
-0.00193473
-0.00244189
-0.00231836
-0.00336117
-0.00333706
-0.00487479
-0.0048384
-0.00682486
-0.00662219
-0.00945465
-0.00959402
-0.00908492
-0.012558
-0.0129248
-0.00910649
-0.00937713
-0.00958619
-0.00663118
-0.00949022
-0.00932403
-0.0128529
-0.0128528
-0.00949034
-0.00663123
-0.00958586
-0.00713123
-0.0052349
-0.00255248
-0.00119518
-0.000599144
-0.000801098
-0.000572695
-0.000391427
-0.000280624
-0.000443389
-0.000486163
-0.000372107
-0.000447666
-0.000445584
-0.000374076
-0.000546976
-0.000342743
-0.000372377
-0.000645193
-0.000343365
-0.000377045
-0.000531378
-0.000580014
-0.000582881
-0.000577154
-0.000338931
-0.000365617
-0.000685852
-0.000378104
-0.000348827
-0.000347642
-0.000634689
-0.000374826
-0.000629695
-0.000368339
-0.000339217
-0.000529738
-0.00112119
-0.00111741
-0.00170597
-0.00164059
-0.00164619
-0.0023343
-0.00247469
-0.00248919
-0.00367371
-0.00355902
-0.00513197
-0.00479911
-0.00682802
-0.00663027
-0.0095025
-0.00949299
-0.00927703
-0.0128305
-0.0121905
-0.0170197
-0.0173104
-0.0128859
-0.0131403
-0.0131263
-0.0128352
-0.012198
-0.0127955
-0.0091396
-0.00481167
-0.00235166
-0.00108364
-0.00176634
-0.00374684
-0.00739338
-0.00707703
-0.012925
-0.0135202
-0.0135202
-0.0228918
-0.0207718
-0.0284295
-0.0267248
-0.0358204
-0.0325922
-0.0438095
-0.0405503
-0.0368969
-0.0235684
-0.0139061
-0.00759715
-0.00384703
-0.00181245
-0.00156897
-0.00234603
-0.00234551
-0.00234539
-0.00234623
-0.00156895
-0.00181247
-0.00384706
-0.00334032
-0.00492328
-0.00358634
-0.00169262
-0.0011555
-0.00252154
-0.00520254
-0.00713137
-0.00745894
-0.00373375
-0.00354709
-0.00355078
-0.00489093
-0.00514604
-0.00517481
-0.00731376
-0.00721106
-0.00998996
-0.00919453
-0.0135296
-0.0180006
-0.0162938
-0.0235073
-0.0300378
-0.0267257
-0.0359912
-0.0325923
-0.0438101
-0.0464908
-0.0333775
-0.0377803
-0.0221218
-0.0363496
-0.0229758
-0.0134652
-0.00994108
-0.00987672
-0.0175188
-0.0176714
-0.0288106
-0.0291627
-0.0442748
-0.0450471
-0.0667074
-0.0471078
-0.0592799
-0.0862609
-0.0739219
-0.0782165
-0.107691
-0.0779568
-0.0705374
-0.0884055
-0.0543436
-0.0518288
-0.0520222
-0.0396995
-0.0261993
-0.0160784
-0.0171209
-0.0278719
-0.0358205
-0.0342727
-0.0218704
-0.0228919
-0.0235685
-0.0160214
-0.00910862
-0.0139061
-0.0075972
-0.0122034
-0.0172889
-0.0170821
-0.0165181
-0.0223536
-0.0223534
-0.0170822
-0.0122033
-0.0172885
-0.0131724
-0.0137923
-0.00980834
-0.00745879
-0.00509002
-0.0236632
-0.0175014
-0.0225932
-0.0288859
-0.0284544
-0.0207942
-0.0261079
-0.0395734
-0.0709451
-0.0677065
-0.0519047
-0.0713436
-0.0497362
-0.0483824
-0.0749656
-0.0539926
-0.0797104
-0.0773339
-0.0843735
-0.084323
-0.0756374
-0.0907787
-0.077847
-0.0776077
-0.0810166
-0.0747119
-0.0535135
-0.0520028
-0.0446997
-0.0359526
-0.0326347
-0.0520023
-0.0671841
-0.0704317
-0.0598155
-0.0668002
-0.0627776
-0.0612681
-0.0485723
-0.0291878
-0.0177468
-0.0100078
-0.0131725
-0.0099644
-0.0176919
-0.0225933
-0.0207944
-0.0236635
-0.0137926
-0.00986863
-0.00513291
-0.00246638
-0.00111934
-0.00112323
-0.00247226
-0.00514885
-0.00710039
-0.00681637
-0.00990127
-0.017592
-0.0224943
-0.0284297
-0.0357755
-0.0359186
-0.0225552
-0.0175504
-0.0289621
-0.0289604
-0.0444302
-0.0666876
-0.0520211
-0.04462
-0.0671679
-0.0553951
-0.0376718
-0.0359531
-0.0291595
-0.0290022
-0.0449931
-0.017503
-0.00709901
-0.00686051
-0.00164404
-0.00173123
-0.00077106
-0.00109836
-0.0024426
-0.00509051
-0.00981014
-0.0368969
-0.0289988
-0.0135055
-0.00763196
-0.00399238
-0.0033623
-0.00169256
-0.00230386
-0.00228366
-0.000346453
-0.000374117
-0.000426894
-0.000416369
-0.000384588
-0.000376869
-0.00040111
-0.000413827
-0.000345838
-0.000442603
-0.000336615
-0.000457813
-0.000469349
-0.000364912
-0.000421764
-0.000389809
-0.000443214
-0.0131256
-0.0170895
-0.0162936
-0.0408056
-0.0494167
-0.0713435
-0.0767381
-0.000328367
-0.000298214
-0.00759365
-0.00886952
-0.00466378
-0.0256486
-0.00919415
-0.0164482
-0.00231828
-0.00483828
-0.000347654
-0.000367661
-0.00033995
-0.0761659
-0.0897922
-0.0766915
-0.077378
-0.0766899
-0.0568377
-0.0598164
0.000531393
0.000572753
0.00115543
0.00105269
0.0010089
0.00104996
0.00160142
0.00149362
0.00103415
0.00103751
0.000622666
0.000339953
0.000372414
0.000342809
0.00036737
0.000378006
0.000348854
0.00037813
0.000365642
0.000338975
0.000368379
0.000339311
0.000390787
0.000374819
0.000544925
0.000370544
0.000312194
0.000402741
0.000387988
0.000298242
0.000387984
0.000312185
0.000370538
0.000390789
0.00054493
0.000374823
0.000634677
0.000629675
0.000339294
0.00036837
0.000338974
0.000365644
0.000378124
0.000685855
0.000617768
0.000616268
0.00062265
0.000684521
0.000378007
0.000367363
0.000342802
0.000372414
0.000343447
0.000645191
0.00037706
0.000421759
0.000792709
0.000659839
0.000491059
0.000459086
0.000792668
0.000421755
0.000377041
0.000645216
0.000566284
0.000387793
0.000670266
0.000736626
0.00108039
0.00108029
0.00109993
0.00158492
0.00156895
0.00234601
0.00230075
0.00230383
0.00234455
0.00228362
0.00338165
0.00336128
0.00231623
0.00155793
0.00155166
0.0015612
0.00102533
0.00222863
0.00456128
0.00866845
0.0152652
0.0249272
0.038051
0.0747118
0.0769838
0.0615706
0.0773873
0.0712146
0.0765948
0.108582
0.0761883
0.0779562
0.107692
0.078216
0.0739217
0.0907784
0.0786352
0.0756357
0.0512767
0.0749649
0.0583627
0.0980506
0.0925901
0.077032
0.102981
0.0770295
0.0925904
0.0980501
0.0786358
0.0756356
0.0739218
0.0907785
0.0782159
0.10769
0.0779561
0.0761884
0.0644597
0.0642995
0.0615704
0.0712147
0.0765947
0.0773874
0.10728
0.0772342
0.0897925
0.0771796
0.107277
0.0773576
0.0760955
0.0712792
0.06424
0.0642401
0.0760957
0.0773579
0.107276
0.077182
0.089792
0.0761657
0.0772317
0.10728
0.0598862
0.0634297
0.0895973
0.0568368
0.0634879
0.0598156
0.0612629
0.0627775
0.0612676
0.0627775
0.0480193
0.0535137
0.0535138
0.0883654
0.0612625
0.0598147
0.0634879
0.0568384
0.0634306
0.0598858
0.0611895
0.0628507
0.0612095
0.0627126
0.0610794
0.0590793
0.0623554
0.056181
0.063924
0.0862599
0.0592798
0.0548633
0.0464903
0.0377804
0.0300372
0.0235073
0.0180006
0.0135297
0.00998983
0.00721097
0.00513191
0.00355897
0.00244187
0.00164058
0.00105768
0.0010377
0.00102862
0.0010298
0.0010375
0.00100889
0.00105271
0.00105005
0.000670281
0.000387794
0.000566291
0.000339969
0.000614427
0.00102535
0.00222868
0.00456134
0.00866852
0.0152653
0.0249272
0.038051
0.0747117
0.0769838
0.0479573
0.0501077
0.0720879
0.0525662
0.0525658
0.0501077
0.0479573
0.0720879
0.0500549
0.0642988
0.06446
0.0705372
0.0625255
0.0773266
0.0486745
0.0494166
0.0778665
0.0710569
0.0720355
0.0688111
0.0720354
0.0773266
0.0512765
0.0539918
0.0749648
0.0584119
0.0584119
0.0539918
0.0784932
0.0514799
0.0519044
0.0519042
0.0713434
0.0514794
0.0773335
0.0806052
0.0798024
0.0778455
0.0843235
0.0802612
0.085825
0.0992496
0.0636894
0.0465369
0.0750162
0.0622978
0.0561213
0.0670611
0.0605048
0.0684871
0.0548382
0.0548379
0.0333127
0.0482122
0.0276316
0.039243
0.0313193
0.0175103
0.0244709
0.0187494
0.0102779
0.0141386
0.0103993
0.00558936
0.00756632
0.00534578
0.00281729
0.00375567
0.0025569
0.0013231
0.00173566
0.00117782
0.000610611
0.000743906
0.000422515
0.000470544
0.000470546
0.000402736
0.000363438
0.000377406
0.000360006
0.000470693
0.000352612
0.000352611
0.000356985
0.000477828
0.000359009
0.000359006
0.000349579
0.000468965
0.000382138
0.000382148
0.000358652
0.000483743
0.000403099
0.000403289
0.00044337
0.000486187
0.000372147
0.000447745
0.000374139
0.000547063
0.000374506
0.000375774
0.000441761
0.000336616
0.000442608
0.000445626
0.000401122
0.000413836
0.000367101
0.000543205
0.000367046
0.000393349
0.000452999
0.000328367
0.000395124
0.000443645
0.000622595
0.000615756
0.00109455
0.00237921
0.00486697
0.00923981
0.0162488
0.0264743
0.0402392
0.0405507
0.0530329
0.0520215
0.0525555
0.0528072
0.0449272
0.0359672
0.0289453
0.0224015
0.0173102
0.0128857
0.00959389
0.0068604
0.00492538
0.0033818
0.00234457
0.00156128
0.00103419
0.0014937
0.00160132
0.00158508
0.00234536
0.00237174
0.00234552
0.00339182
0.00341792
0.0032609
0.00482441
0.00492306
0.0047518
0.00664864
0.00473358
0.00492537
0.00333159
0.00485987
0.00487469
0.00483817
0.00681601
0.00682761
0.00489082
0.00333689
0.00336214
0.00233581
0.00231953
0.00155517
0.00106116
0.00102979
0.000716746
0.000616255
0.000684523
0.000443682
0.000374491
0.000547053
0.00037412
0.000447724
0.000372085
0.000486229
0.000443184
0.000389832
0.000358658
0.000363337
0.000457798
0.000336645
0.0003167
0.000441768
0.000442605
0.000375763
0.000395137
0.000328375
0.00061749
0.000349577
0.000639377
0.00109524
0.0023516
0.004799
0.00910857
0.0160214
0.0261078
0.0395732
0.070945
0.0777606
0.0791081
0.0783011
0.0767394
0.084952
0.0776089
0.108581
0.0843729
0.0625268
0.0486745
0.0494162
0.0713433
0.0497361
0.0486082
0.053859
0.0532737
0.0557213
0.055746
0.0462699
0.0555792
0.0529581
0.0403977
0.0447837
0.0433406
0.0518277
0.0403636
0.0446184
0.0671678
0.0666867
0.0667074
0.069403
0.0584429
0.0424925
0.0450497
0.0528617
0.0442752
0.0288089
0.0291609
0.0281127
0.0172085
0.0176705
0.0229762
0.0363483
0.0357747
0.0438099
0.0440928
0.0356657
0.03597
0.032617
0.043615
0.0408061
0.0396993
0.0710568
0.0778663
0.050055
0.0784365
0.0794451
0.0773335
0.0797109
0.0583623
0.0662454
0.0651341
0.064
0.065634
0.0549315
0.041146
0.0274959
0.0169499
0.00967885
0.00513739
0.00256019
0.00123628
0.000634035
0.000457108
0.000507175
0.000507174
0.000578482
0.00116399
0.002518
0.0051458
0.00977205
0.00994062
0.0134654
0.0175185
0.00987653
0.00514596
0.00517456
0.00731373
0.00710011
0.00950241
0.00949284
0.00681626
0.0068247
0.00662211
0.0094545
0.0128303
0.0121906
0.0170194
0.0223435
0.0207749
0.0283285
0.0269765
0.0285442
0.0222307
0.0207725
0.0284298
0.03599
0.0325922
0.0358203
0.0261991
0.0160782
0.0164483
0.0171092
0.0127953
0.0121978
0.0170897
0.0223458
0.0162939
0.0224939
0.0289596
0.044429
0.0518279
0.0543429
0.0884048
0.0705371
0.0471077
0.0520211
0.0883664
0.0553947
0.0704303
0.0671843
0.0448226
0.0449982
0.0376703
0.035918
0.0289615
0.0175501
0.0175916
0.00990102
0.00514871
0.00247217
0.00247462
0.00248896
0.0036737
0.00355063
0.00489085
0.00487472
0.00336222
0.00336136
0.00333162
0.00485996
0.0048383
0.00481161
0.00913955
0.00927687
0.00739332
0.00663016
0.00682782
0.00479907
0.00707701
0.0103995
0.00763199
0.0141387
0.0102781
0.01875
0.0135053
0.0244712
0.0175108
0.0313202
0.0221217
0.039243
0.0276323
0.0482128
0.0333774
0.0592157
0.041959
0.0661941
0.0475004
0.0408942
0.0483822
0.0483821
0.0661941
0.0419589
0.0592157
0.040894
0.0684878
0.0465369
0.0605048
0.056435
0.0670614
0.0561215
0.062298
0.0639245
0.0750164
0.0651338
0.0662471
0.0797107
0.0802621
0.0798038
0.0843229
0.0778437
0.0843727
0.0794433
0.0810167
0.0785554
0.0677063
0.0422231
0.0422946
0.0403489
0.0333127
0.0468437
0.0377745
0.0302524
0.0236443
0.0236435
0.0134149
0.0181602
0.0104393
0.0136792
0.00759366
0.0101049
0.00568698
0.00733436
0.00398645
0.0052153
0.00287137
0.00365989
0.00194866
0.00250938
0.00135212
0.0017297
0.000902861
0.00114612
0.000623682
0.000841462
0.000551712
0.000841464
0.000422508
0.000743902
0.000610613
0.00117785
0.000874922
0.00173569
0.00132314
0.00255695
0.00193472
0.00375572
0.0028173
0.00534582
0.00399229
0.00756644
0.00558947
0.00568705
0.00733441
0.00466384
0.00521523
0.00365999
0.00250935
0.00172974
0.00107818
0.00114613
0.000623697
0.000757192
0.00169973
0.00135215
0.00180774
0.00374256
0.00731161
0.0132972
0.0224148
0.0349315
0.0493638
0.0493635
0.0640011
0.0584431
0.0424917
0.034931
0.0468443
0.0278762
0.0377736
0.0219652
0.0302528
0.0177386
0.0218702
0.0265521
0.0219655
0.0256485
0.0162969
0.0134149
0.01816
0.0136795
0.0101048
0.00759369
0.00927637
0.00886969
0.00489723
0.00398649
0.00240603
0.00194867
0.0022902
0.00112186
0.00090285
0.000582865
0.000585326
0.000377404
0.000363435
0.000449039
0.000369456
0.000369434
0.000449028
0.000487485
0.00034648
0.000382064
0.000444971
0.000441157
0.000317628
0.000377117
0.000441942
0.000370885
0.000544826
0.000375561
0.000449456
0.000436147
0.000398209
0.000345069
0.000374188
0.000374378
0.000391609
0.000498315
0.000374388
0.000487521
0.000382097
0.000346479
0.000327592
0.000441159
0.000377123
0.000317638
0.000327745
0.000453006
0.000393354
0.000367023
0.000543153
0.000367107
0.000413835
0.000378868
0.000374175
0.000381324
0.000426045
0.000327582
0.000626934
0.000425475
0.00041168
0.000378872
0.000345871
0.000388595
0.000425474
0.000426043
0.000360006
0.00062694
0.000757192
0.00116621
0.00251211
0.00513194
0.00973945
0.0171254
0.0278942
0.0342726
0.0278768
0.0342725
0.0402393
0.0333775
0.0548629
0.0405503
0.0438096
0.0325921
0.0356652
0.0269764
0.0283281
0.0207744
0.0223433
0.0224012
0.0161334
0.0168802
0.0172885
0.0161627
0.0220051
0.0281207
0.0288857
0.0265741
0.0357226
0.0265358
0.0289452
0.0359673
0.0359695
0.043615
0.0326173
0.0449266
0.0403641
0.0433401
0.0447836
0.0403974
0.0518278
0.0528074
0.0525549
0.0408059
0.044093
0.0520212
0.0530324
0.054343
0.0486082
0.0538589
0.0482505
0.053274
0.0486208
0.055721
0.0461778
0.055746
0.0555796
0.0462692
0.0671842
0.0667999
0.0520026
0.0485724
0.0523267
0.0409187
0.0438466
0.0438469
0.0326341
0.0360745
0.0265739
0.0288859
0.0281209
0.0357224
0.0265362
0.0220054
0.0161629
0.0172887
0.0168803
0.0161338
0.0125579
0.00910652
0.00958607
0.00937696
0.00908477
0.00986844
0.00513275
0.00246629
0.00111929
0.00112322
0.00112116
0.00111741
0.00170598
0.00164614
0.00233429
0.00231955
0.00155521
0.00155167
0.00155792
0.0023163
0.00233584
0.00235162
0.00108363
0.00106117
0.000780989
0.000718872
0.000618158
0.000347652
0.000577145
0.000529745
0.000752557
0.000739889
0.000582874
0.000348878
0.000367656
0.00073965
0.00164395
0.00354696
0.0070988
0.01314
0.0225545
0.0236636
0.0290019
0.0291594
0.0176911
0.0175016
0.0137925
0.0131721
0.0225929
0.022463
0.0223532
0.0165182
0.017082
0.017082
0.0122032
0.0128528
0.00932375
0.00949016
0.00949012
0.00663112
0.0068941
0.00475193
0.00492322
0.00482444
0.00664892
0.00473371
0.00745886
0.00980953
0.00996418
0.00520236
0.00508928
0.00373366
0.00358621
0.00341783
0.0023008
0.00234618
0.00230383
0.00326103
0.00228369
0.00173115
0.0024425
0.00252153
0.00115546
0.00109821
0.000771021
0.000579993
0.000531393
0.000572696
0.000391445
0.000280625
0.000333916
0.000310847
0.000335553
0.000280394
0.000391693
0.000364909
0.000468728
0.00059913
0.00119518
0.00169262
0.00156892
0.00181244
0.00176633
0.00156021
0.00154737
0.00104968
0.00374682
0.00333698
0.0033611
0.00231827
0.0035936
0.00287135
0.00359358
0.00707697
0.0129249
0.0162486
0.0264742
0.0221215
0.0377792
0.0267248
0.0284292
0.020772
0.0222301
0.0164481
0.0170191
0.0121903
0.01283
0.0128853
0.00908458
0.00937693
0.00958589
0.00910621
0.0125576
0.0129247
0.0122032
0.0128527
0.0131722
0.0177464
0.0291874
0.0446995
0.0359517
0.0359526
0.0520015
0.0485724
0.0529576
0.0523271
0.0513008
0.0497361
0.0358203
0.0396994
0.0261991
0.0278718
0.0228919
0.0218704
0.0177387
0.0129249
0.0104395
0.0135202
0.0171208
0.00973859
0.0051314
0.00251146
0.00116676
0.00064956
0.000650368
0.00061576
0.00109454
0.0023792
0.00486693
0.00923971
0.00763182
0.0135291
0.00919423
0.00950222
0.00663008
0.00949276
0.00927669
0.00945439
0.00662207
0.00682454
0.00686016
0.00959382
0.00709848
0.00709975
0.00731323
0.00977194
0.0172082
0.0281117
0.0224141
0.0132968
0.00731142
0.00374246
0.00514577
0.00251796
0.00180774
0.000863792
0.00116393
0.000578459
0.000529786
0.00075252
0.00105768
0.00104967
0.00103768
0.000718856
0.000617771
0.000367653
0.000622593
0.00108361
0.0023516
0.00481156
0.0091395
0.0160782
0.0228917
0.0135202
0.0121976
0.0128346
0.0127949
0.017109
0.0170894
0.0180004
0.0162932
0.0235065
0.0135052
0.0300373
0.0229748
0.0363475
0.04649
0.0528626
0.0592798
0.0471076
0.0623572
0.0561791
0.0862598
0.069397
0.066704
0.0590789
0.0610798
0.0884047
0.0627123
0.061212
0.0628519
0.0883664
0.0611897
0.0671671
0.0666854
0.0518289
0.044273
0.0450489
0.0288083
0.0291612
0.0175174
0.0176697
0.0134645
0.0131252
0.0224933
0.0223454
0.028544
0.0357741
0.03599
0.0444279
0.0289588
0.0175909
0.00990064
0.00987595
0.0099402
0.00514562
0.00479893
0.00513183
0.00355888
0.00231822
0.00233425
0.00156018
0.00154735
0.00164055
0.000874901
0.00244183
0.00193468
0.00170591
0.0036735
0.00517447
0.00355047
0.00336101
0.00247453
0.00248897
0.00112116
0.00111732
0.000577168
0.000347649
0.000634659
0.000629691
0.000436192
0.000375546
0.000544845
0.000370899
0.000441954
0.000685858
0.000618162
0.000739878
0.00102863
0.00164606
0.00164386
0.00354671
0.00514849
0.00247208
0.00112318
0.000582894
0.000739607
0.00111926
0.00246617
0.00513254
0.00986809
0.0175497
0.0289613
0.044618
0.0520217
0.055395
0.0448216
0.0291586
0.0225931
0.0284541
0.028454
0.0270838
0.0359206
0.036074
0.0326345
0.0368967
0.0368967
0.0513008
0.0486209
0.0235683
0.0207938
0.0235682
0.0207937
0.0224629
0.0223532
0.013906
0.0139061
0.00759713
0.00759711
0.00739326
0.00374681
0.00176631
0.00169972
0.00078099
0.000615358
0.000356986
0.000799915
0.00181244
0.00384701
0.00384702
0.00334027
0.00488699
0.0048763
0.00488712
0.00334027
0.00358619
0.00523477
0.00713109
0.00685138
0.00685124
0.00689419
0.00663112
0.00713118
0.0100075
0.00996402
0.0176915
0.0137922
0.0236627
0.0225539
0.0359177
0.0376702
0.0449973
0.0290013
0.0131395
0.0173101
0.0175025
0.00980989
0.00745852
0.00520221
0.00252142
0.00255245
0.00169255
0.00173107
0.00373358
0.00508969
0.0024424
0.000771022
0.00109817
0.000801005
0.000659765
0.000801076
0.000736616
0.000799913
0.000716746
0.000617487
0.000316697
0.000426877
0.000374107
0.000346417
0.000380723
0.000426878
0.000416359
0.000374099
0.000346391
0.00040113
0.000376845
0.000384578
0.000376889
0.000416361
0.000363348
0.000389688
0.000364932
0.000459054
0.000495431
0.000469368
0.000450846
0.00045781
0.000503929
0.000445658