/*--------------------------------*- C++ -*----------------------------------*\
| =========                 |                                                 |
| \\      /  F ield         | OpenFOAM: The Open Source CFD Toolbox           |
|  \\    /   O peration     | Version:  2306                                  |
|   \\  /    A nd           | Website:  www.openfoam.com                      |
|    \\/     M anipulation  |                                                 |
\*---------------------------------------------------------------------------*/
FoamFile
{
    version     2.0;
    format      ascii;
    arch        "LSB;label=32;scalar=64";
    class       volScalarField;
    location    "1.1";
    object      gradTx;
}
// * * * * * * * * * * * * * * * * * * * * * * * * * * * * * * * * * * * * * //

dimensions      [0 -1 0 1 0 0 0];

internalField   nonuniform List<scalar> 
2658
(
0.00840717
0.0123812
0.00401356
-0.000116676
-0.0151984
-0.0128175
0.0124417
0.0123152
-0.000173012
0.0181364
-0.0128698
-0.00976564
0.0068613
0.00798415
0.00605134
-0.000419477
-0.000266084
-0.000182534
-0.00662158
-0.00867605
-0.00841183
-0.019527
-0.0230466
0.0170271
-0.00706513
-0.00923997
-0.0198602
-0.00272794
-0.0145361
-0.0158267
-0.0145359
-0.0198606
-0.0092405
-0.0230479
-0.0070647
0.0170269
-0.00839149
0.00424034
-0.0195239
-0.00841417
-0.00867583
-0.00662112
-0.000183771
0.000610593
-0.010514
0.00981523
-0.0128695
-0.000526534
-0.000421423
0.00605148
0.00798454
0.0068611
0.0185234
-0.00384572
0.0206341
0.0170583
-0.00886757
0.000425747
-0.0307929
0.0171877
-0.00886708
0.0170587
0.020634
-0.00384511
0.00371391
-0.0327655
0.00364207
-0.000583112
-0.00962301
-0.00962408
-0.000209596
0.00890799
-0.000825755
-0.00896691
0.000355316
-0.00947722
0.0120759
-2.11351e-05
-0.00955874
0.0106208
-0.0139189
-0.000341409
0.0160171
-0.0145903
-0.000317236
-0.000169476
2.32757e-06
4.70849e-05
4.23241e-05
2.75206e-05
1.45591e-05
-1.36357e-05
1.14829e-05
-9.41867e-05
5.91146e-05
-1.32486e-05
-7.31166e-05
1.9615e-07
7.28859e-05
-6.04653e-05
3.17364e-05
8.21227e-05
8.05921e-05
5.53295e-05
5.79875e-05
-0.000127979
-2.14838e-05
-1.5221e-05
-9.11653e-06
3.33066e-05
7.12296e-05
2.70398e-05
5.56629e-05
2.70341e-05
7.12293e-05
3.33075e-05
5.79978e-05
-0.000127982
8.06044e-05
5.53426e-05
8.21158e-05
3.17208e-05
-6.04714e-05
7.28865e-05
-0.00012448
0.000123321
-9.41932e-05
-1.32539e-05
-7.31148e-05
5.91064e-05
-3.29019e-05
-8.11507e-05
-5.26148e-05
-4.77535e-05
-3.26155e-05
2.41319e-06
-1.71621e-05
-0.000110872
7.72127e-05
7.71752e-05
-1.71591e-05
2.39347e-06
3.02509e-05
-3.51795e-05
-4.02524e-05
-3.50994e-05
1.6184e-05
1.88379e-05
-7.20434e-05
-7.49285e-05
-6.19965e-05
-7.85557e-05
-7.73373e-05
-7.95429e-05
-6.61169e-05
-0.000113718
-0.000100797
-4.34806e-05
-5.20254e-05
-3.86552e-05
1.45646e-06
-2.87863e-07
-2.90274e-06
3.54997e-05
5.07401e-05
4.27652e-05
0.000100249
0.000131196
-3.06187e-05
0.000123933
-0.000348186
0.000518445
-0.000744673
0.00112336
-0.00156018
0.00226976
-0.00305036
0.00425492
-0.00553233
0.00741498
-0.0092975
0.0120852
-0.0144946
0.0188802
-0.0188078
0.0199834
-0.0206613
0.0181359
-0.0151991
-0.000116736
-0.0128167
0.00364137
-0.0327648
0.00371397
-0.00976579
0.00404977
-0.000317292
-0.000169485
2.221e-06
4.70083e-05
4.2354e-05
2.75419e-05
1.45649e-05
-1.36373e-05
1.14821e-05
2.18904e-06
-3.47695e-05
-5.0736e-06
4.55894e-05
4.55877e-05
-3.47728e-05
2.19617e-06
-5.05682e-06
1.24315e-05
0.000123318
-0.000124489
9.12143e-06
9.51901e-05
-7.50663e-06
1.71302e-07
-1.30934e-05
-4.21146e-07
4.90424e-07
1.20678e-05
1.03631e-05
1.20676e-05
-7.52457e-06
-2.14763e-05
-6.02462e-05
-1.52107e-05
1.29965e-05
1.30016e-05
-6.02517e-05
-1.95222e-06
3.8097e-05
-4.64875e-05
-4.65008e-05
8.00138e-07
3.81103e-05
-6.99039e-07
-7.13144e-06
-9.48355e-06
-9.02658e-06
4.06805e-05
-9.08066e-06
-2.14997e-06
-6.63455e-05
-4.24024e-09
-3.27493e-05
5.47551e-05
4.96449e-05
0.000105968
7.50913e-05
-0.000228516
0.00018981
-0.000388628
-0.000388607
-7.95441e-06
-0.000487031
1.19246e-05
0.000679814
-0.00102096
1.1068e-05
0.00143355
-0.00205467
-5.73836e-07
0.0028011
-0.00384884
-3.60151e-05
0.00507181
-0.00665949
-0.000122031
0.00856467
-0.0105865
-0.000260864
0.0138665
-0.015112
-0.000857308
0.0246172
0.00407838
0.0297133
0.0297131
-0.00272746
0.00693835
-0.00238525
0.00969122
0.000548782
-0.00603501
-0.00603498
0.0066712
-0.000306326
-0.00779329
-0.00779317
0.00210303
-0.002574
-0.0112828
-0.0112828
0.00404875
0.0163468
0.00404888
0.00635925
0.0178889
0.00763797
0.0102901
0.0127815
-0.0195745
-0.0113655
0.0107173
0.0073865
-5.08834e-05
0.00210312
-0.00125608
-0.00334024
0.0135044
-0.0100734
0.00627433
0.014551
0.00832466
-0.00447509
-0.00598384
-0.00447484
-0.0033404
-0.0113652
-0.0195742
0.00763817
0.0178896
0.00635972
0.0107174
0.00738666
0.00832579
0.0145499
0.00627331
-0.0100736
0.0135039
0.00164127
0.0125455
-0.000301108
-0.0130521
0.0197773
-0.000289008
-0.00347694
-0.0203075
-0.000324127
-0.00236967
0.000163665
0.000127334
5.92351e-05
2.94902e-05
1.4643e-05
6.20447e-06
1.9135e-06
-1.23999e-05
0.000359347
-0.000391051
0.000389643
-0.00035808
0.000495818
-0.000784671
0.00110113
-0.00163711
0.00225077
-0.00317775
0.00425398
-0.00572557
0.00745127
-0.00955803
0.0120752
-0.0145898
-0.000172816
0.0123153
0.01244
0.00890964
-0.0065227
0.000377244
-0.00652144
0.00565009
0.00784184
0.00778658
-0.0058249
-0.00564238
0.000328332
0.00456054
7.94549e-05
0.00745212
-0.000172502
-0.0085757
0.00832502
-2.44035e-05
-0.00638172
0.00588971
-0.00782697
-6.40432e-06
-0.0106423
-4.98507e-05
0.0134673
-0.0161363
-9.15389e-05
-0.0206613
-0.000746875
0.00981523
-0.000526559
0.00164163
-0.0203078
-0.00347675
0.000576044
-0.000326948
-0.000193901
-0.000166779
-9.61142e-05
-4.5851e-05
-2.07295e-05
-9.37051e-06
-4.38252e-06
-2.07013e-06
4.94623e-07
-4.09219e-07
-1.30745e-05
8.00484e-07
1.69595e-07
9.51904e-05
9.11521e-06
-3.47104e-06
-0.000153596
0.000140786
-0.000144591
0.00014552
-7.07552e-05
0.000227233
-8.70992e-05
0.000238531
3.29495e-05
-0.000411703
-0.000410789
0.000284951
1.47721e-05
1.14398e-05
-1.78837e-05
-2.82733e-08
1.95095e-05
4.30268e-05
6.19152e-05
-2.62301e-05
-1.11976e-05
3.81608e-05
-1.15722e-05
-4.4e-05
-5.99368e-05
-6.96726e-05
-0.000141413
-0.000140846
3.57549e-05
2.73906e-05
1.63821e-05
-0.000522189
0.000560055
-0.00086637
0.000864984
-1.33939e-05
-0.000574934
-2.0391e-06
-4.84203e-07
5.42066e-07
2.66639e-06
-8.87073e-05
-0.000160424
-0.000285307
-0.000264205
-0.000455462
-0.000537235
2.67128e-05
4.1456e-05
4.9434e-05
-0.00237355
0.0025274
-0.00353722
0.00354138
-5.04598e-05
-0.00259548
0.00181779
-2.70394e-05
-0.00127303
-3.65512e-06
0.00123995
-0.00181729
5.89576e-06
-0.00116205
0.000802273
4.33279e-06
1.34463e-06
-2.79431e-05
-0.000486964
1.62592e-05
0.000301045
1.25153e-05
-0.000264254
-0.000107858
6.58252e-05
-1.79915e-05
1.8599e-09
-1.12934e-06
8.11294e-06
-1.23907e-05
2.02718e-06
-3.85564e-05
-3.40537e-05
-9.99887e-06
6.21021e-05
-3.06082e-06
-3.36142e-05
-2.40691e-05
4.92801e-05
0.000105132
0.000197202
5.67724e-06
8.49072e-06
-0.000273333
-0.000472659
-0.0010045
-0.000735618
-0.00139226
-0.00231658
-0.000353268
-5.32415e-05
8.89215e-05
-0.00782675
0.00832454
-0.0106425
0.0106209
-0.000172849
-0.00857515
0.0063858
-9.21004e-05
-0.00489673
-1.22092e-05
0.00476365
-0.00638173
4.13216e-06
-0.00447884
0.00327246
6.62286e-06
3.17129e-06
2.4187e-06
-5.10013e-05
-0.00102091
9.03223e-06
0.000679817
1.19498e-05
5.27024e-05
-0.000800121
0.00107619
-0.00164327
-0.00164328
-2.60859e-06
0.0022023
4.22363e-05
-0.00317567
-3.67613e-06
0.0041502
1.74585e-05
-0.0056781
4.59198e-07
0.00724309
-0.000107999
-0.00926778
6.06157e-05
0.0118074
-0.000663164
-0.0134687
0.000440866
0.0185271
-0.00312442
-0.015497
-0.00210117
-0.0154967
0.00407832
0.0246174
-0.000857095
-0.0151111
-0.000595614
0.0138658
-0.000260768
-0.0105864
-0.000285459
0.008565
-0.000121814
-0.00665844
-0.00011933
0.00507204
-3.58386e-05
-0.00384865
-4.40142e-05
0.00280107
-4.32042e-07
-0.00205457
-8.12509e-06
0.00143355
1.11568e-05
4.78154e-05
-9.06863e-05
-5.56127e-05
-3.09988e-05
5.99245e-05
2.14486e-06
-5.50744e-05
-0.000118566
-0.000213195
-0.00036941
-0.000605971
-0.000875869
-0.000939498
-0.00029013
0.000904377
-0.00146287
-0.0110274
-0.0110274
-0.0113317
-0.00942739
-0.00311217
-0.00125882
-0.00515775
0.00798509
0.0123221
0.000278769
0.000107927
0.000667463
-0.00312396
0.018526
0.000441312
-0.0134686
-0.00133688
-0.000634795
-0.000558026
6.12272e-05
-0.00926766
0.011807
-0.000663166
-7.7926e-05
-0.000161201
-0.000108207
0.00724207
7.4465e-07
-0.00567767
-0.000218894
-0.000415929
-0.000275314
-0.000161864
-2.50018e-06
0.00220224
-0.00317565
0.00415003
1.74915e-05
-0.000132882
-8.74441e-05
9.93182e-06
5.3597e-06
2.46887e-06
-3.6501e-05
-7.94525e-06
0.000481941
2.29454e-05
0.00048198
5.26611e-05
-0.000800087
-3.635e-06
0.00107632
4.78615e-05
-5.10008e-05
-8.35195e-05
-3.6161e-06
1.99567e-06
-2.79364e-05
-1.79868e-05
-0.000264268
1.2516e-05
0.00030104
6.5817e-05
0.000189803
-3.27479e-05
-0.00022852
2.4908e-05
7.5096e-05
0.000105975
4.96303e-05
0.000131195
5.47652e-05
2.13577e-05
-3.79389e-05
2.29602e-05
-9.07999e-06
-9.47859e-06
4.06798e-05
-9.03052e-06
6.15024e-06
-2.55469e-09
6.59123e-09
-2.97351e-09
-1.67277e-07
1.93547e-07
6.15263e-06
-6.94508e-07
2.29617e-05
-9.12868e-06
-3.79459e-05
2.13542e-05
-4.77083e-07
1.15298e-05
9.90418e-06
-7.03585e-06
-4.06865e-05
1.13912e-05
-2.30858e-05
4.1913e-05
0.000128276
-8.33554e-05
2.30619e-05
1.04807e-05
6.07477e-06
7.98964e-06
-5.13489e-07
-9.07698e-07
-2.47576e-06
-5.20659e-06
-1.07167e-05
-2.30474e-05
1.72261e-05
3.2681e-05
7.81791e-05
0.000193088
-0.0011319
-0.00351376
0.0134418
-0.00238523
0.00693847
-0.0150402
-0.00705919
-0.00705852
-0.0150412
-0.00765402
-4.14433e-05
-0.0134495
0.0221588
0.00157967
-0.000865089
-0.0157879
-0.00141401
0.00954083
-0.0071504
-0.015557
-0.0129457
-0.0128973
-0.0090251
0.000967043
0.00201354
0.000965204
0.000340592
-0.0128188
0.000965628
-0.00765325
-0.0134498
-4.08214e-05
0.00430723
0.00158015
-0.015788
-0.000864824
0.00201684
-0.000288904
0.0197777
-0.0130527
-0.000300665
0.0125463
0.000986014
-0.000533014
0.00201415
0.00162147
-0.00406591
0.00430754
0.00300523
0.000238646
-0.00143152
-0.00053243
-0.00015686
0.000985472
-0.00191359
-5.09605e-05
-0.00125591
0.000576064
-0.000327021
-0.000747117
-0.000366702
-4.59469e-05
1.43846e-06
9.09451e-05
-0.012638
0.0134672
-0.016137
0.0160176
-0.000342107
-0.0139185
-4.97123e-05
-0.000308098
0.000619911
0.000349826
-0.000193734
-0.000124326
-7.6229e-05
-4.43728e-05
2.9902e-05
0.0016836
-4.22166e-05
-4.11673e-05
-0.000888666
6.44893e-05
-0.000886755
0.00123098
0.000123353
-0.00177291
-0.00179284
0.00125291
5.63259e-05
0.00248015
0.000216051
-0.00328736
-0.00335372
7.95477e-05
0.0045609
0.000327716
-0.00564157
-0.00582527
7.96432e-05
0.00778685
0.00035509
-0.0089662
-0.00947844
-2.05398e-05
0.000591514
0.00140664
0.00458862
-0.000218804
-0.000258368
-2.36048e-05
-0.000409275
0.0026507
0.00290494
0.00401272
0.00206831
0.00114298
0.000628132
0.000330073
0.000158607
3.8631e-05
-5.87517e-05
-0.000121296
-0.000640889
7.83172e-05
-0.000640639
0.000884055
0.000148329
-0.00128993
-0.00129031
0.00088438
8.05603e-05
4.49592e-05
2.07898e-05
-1.07549e-05
-3.72071e-06
-4.15387e-05
-3.70196e-05
0.000221899
-3.69252e-05
0.000187688
3.9515e-05
-0.000289523
-0.000289757
0.000187913
-2.76271e-05
6.15412e-05
-1.16186e-05
-1.17085e-05
8.30212e-05
-9.95434e-06
6.16071e-05
-8.72031e-05
0.000227309
-7.07141e-05
0.000284945
3.29453e-05
-0.000410704
-0.000411933
0.000238815
-4.1525e-05
-1.07535e-05
-1.54316e-09
1.91112e-06
1.62497e-05
-0.000348196
-1.23859e-05
-0.000522229
4.35457e-06
-0.000866441
-3.63608e-06
-0.00127302
-2.7027e-05
0.00181795
-0.00163733
5.63111e-05
-0.00179272
-0.00177335
0.000123201
0.00125292
-0.000888573
-0.000886988
6.43898e-05
0.000592157
3.44241e-05
0.00110132
-0.000784829
0.000865057
-0.000574942
-1.339e-05
0.000495945
1.47691e-05
-0.000358177
0.000389681
-2.04613e-06
0.00056009
-0.000391075
0.000359351
-0.000153605
-1.12085e-06
0.000140794
1.18447e-06
-0.000144599
-3.71245e-06
0.000145578
7.82165e-05
-3.86458e-05
1.46466e-06
2.02611e-06
-1.23719e-05
8.11285e-06
3.81516e-05
6.19187e-05
5.99451e-05
-3.10092e-05
-5.56382e-05
-2.62207e-05
-6.96926e-05
-9.09154e-05
-0.000154059
-0.000141465
-0.000264099
-0.000248313
-0.000247394
-0.000153688
4.21272e-05
-0.000314634
-0.000316893
-0.000455042
-0.000736023
-0.00017217
-0.000168801
0.000155787
0.000155426
-0.00139375
-0.0113324
-0.00943552
-0.00311563
0.0188801
4.87217e-05
-0.0188074
0.000278874
-0.0105138
-0.000409238
-0.000324068
-0.00236965
0.00016377
0.000127312
5.93192e-05
2.94573e-05
1.46466e-05
6.20844e-06
9.03377e-06
-0.000744701
-2.65853e-05
-0.00116208
5.87132e-06
-0.0018174
-6.34684e-06
-0.00259564
-5.042e-05
0.00354155
-0.00317809
7.94139e-05
-0.00335355
-0.00328808
0.000216041
0.00247998
0.00245918
-0.000213276
0.00176771
0.000253313
-0.00239308
-0.0023936
0.00176818
-0.000213215
0.00245868
-8.97571e-05
0.000336164
0.000161094
6.62147e-05
5.35582e-05
-2.76146e-05
-1.00134e-05
-6.60577e-05
-7.99732e-05
-5.85608e-05
-3.26151e-05
-4.77703e-05
-5.26376e-05
-8.33297e-05
-8.11542e-05
-3.28948e-05
-5.20029e-05
-4.34798e-05
2.30958e-05
-0.000100818
-0.000113763
-3.40539e-05
-1.7895e-05
-2.83553e-08
1.94958e-05
5.07459e-05
3.54986e-05
-3.48196e-06
-2.89343e-06
-2.97708e-07
-6.54295e-05
0.000123938
-0.000107861
-3.06372e-05
4.27826e-05
0.000100216
4.2991e-05
-1.15447e-05
-1.12292e-05
2.73565e-05
0.000518461
1.63957e-05
0.000802295
-4.40344e-05
-5.97752e-05
3.56232e-05
0.00112334
-0.0015604
-4.21442e-05
-0.00237384
6.67807e-06
0.00327245
-0.00353733
-1.22076e-05
-0.004897
-9.21937e-05
0.0063859
-0.00572584
0.00425443
-0.000124058
7.27683e-05
-0.0044791
4.01849e-06
0.00476393
-2.07398e-05
-9.3914e-06
-4.38658e-06
-2.06121e-06
1.35505e-06
2.47288e-06
3.14214e-06
-8.7384e-05
-0.000132721
2.58554e-06
2.63635e-06
2.86881e-06
-6.36168e-06
0.00979252
-2.00583e-05
2.27122e-05
-1.78304e-05
0.0147845
4.86421e-05
-0.000337809
-0.000202544
-0.000121889
-7.10265e-05
-3.92719e-05
-2.00745e-05
-6.5552e-05
0.000570538
0.000412982
0.000412753
0.000570852
-6.55413e-05
-2.00738e-05
-3.93141e-05
-0.000121252
0.00123141
-5.86758e-05
-3.48459e-05
6.21471e-05
0.000158707
0.000330124
-8.96662e-05
-4.28287e-05
-4.1054e-05
-4.43406e-05
3.00036e-05
0.00168365
-8.88757e-05
-0.000140456
4.12141e-05
0.00226985
-0.00305051
-6.18086e-05
0.00425506
-0.00553257
-7.22134e-05
0.00741526
-0.00929805
-1.93143e-05
-0.0126381
-1.76825e-05
0.0147835
-0.0144956
-0.000595308
0.012085
-0.00028592
-0.000352895
-5.36525e-05
2.64113e-05
-0.000284574
-0.000160722
-0.000274287
-0.000534809
-0.000473456
-0.000999182
-0.00125858
-0.00232108
-0.00516028
0.00798454
-0.00839122
0.00423863
-0.0128975
-0.0155568
-0.00715039
0.00954097
-0.00141444
0.000610219
0.0123216
-2.28804e-05
0.0199835
-0.00016682
-9.61103e-05
-4.59605e-05
-4.96807e-05
-0.000102449
2.2509e-05
-7.77525e-05
-0.000161145
2.74673e-06
-0.000202516
0.000130265
0.000119961
-0.000121892
-7.0987e-05
-0.000350242
0.00455497
0.00328237
0.000371895
-0.00410095
-0.00410159
0.00328308
-0.000350288
0.0045544
-0.000119613
-1.30184e-05
0.000248221
-4.3218e-05
0.000112615
0.000129413
0.000525843
-0.000117831
0.0078404
0.00565115
-0.000544357
4.14821e-05
-0.000100489
0.0023974
-8.78794e-05
0.0066713
-0.000151979
0.000107961
0.000667667
0.00300424
0.00969166
-0.00406642
0.000238245
-0.00143137
-0.00902456
0.0221583
-0.0129453
0.000967322
-0.000157138
-0.000856418
0.00404981
0.000425341
0.00145616
0.00415103
-5.11056e-05
-0.000825909
0.00145553
0.0123805
0.00840985
0.0211511
0.0119208
0.0171883
0.018957
-0.0005832
0.00213876
0.00117981
0.000643728
-0.000119462
0.000627887
0.00114307
-0.000117418
-0.000544467
0.000130126
-1.29848e-05
0.000197144
0.000105148
4.9347e-05
1.14598e-05
-4.9995e-07
4.832e-07
2.5218e-06
4.95613e-05
0.00252759
5.38066e-06
8.15227e-06
8.93943e-05
0.00979178
9.12027e-05
-0.000307256
-0.000193354
0.000349589
0.000619836
8.14553e-07
-4.67078e-05
-0.000218227
-0.000367255
0.00140665
0.00458811
0.00265033
0.00059137
-5.0258e-05
0.00206716
0.00117717
0.00290559
0.000526342
-7.61988e-05
0.00225109
-2.40594e-05
-3.35544e-05
-3.84911e-05
-3.00383e-06
3.86848e-05
0.000112943
0.000250268
-0.000337681
0.00117254
-0.0001197
-4.40975e-05
-8.13129e-06
0.00123998
-3.48639e-05
0.000592168
3.44135e-05
9.90694e-06
1.15283e-05
-4.76777e-07
-2.30882e-05
1.39803e-05
1.13927e-05
-4.06866e-05
-7.03516e-06
-1.62679e-07
0.000128269
4.19498e-05
-0.000110883
-7.63882e-05
8.28421e-05
-9.99967e-06
3.02202e-05
-5.84804e-05
7.24639e-05
0.00588959
-7.18888e-05
-9.1415e-05
0.00201692
-0.000151676
-0.00191409
1.24298e-05
7.62313e-05
-3.44273e-06
-9.87618e-05
-3.72302e-05
-0.000543944
-6.187e-05
-2.42898e-05
-2.6554e-05
-6.40454e-06
-6.54342e-05
1.1825e-06
7.82554e-05
0.0127822
0.0102904
0.000115095
-0.00132695
0.000114469
0.0185237
0.0211521
-3.40002e-05
-9.99608e-06
6.21468e-05
3.29508e-05
0.000284933
0.000238561
-0.000411734
-0.000410744
1.47721e-05
-0.000358085
0.000145517
7.82392e-05
-4.35089e-05
-5.20383e-05
-3.86585e-05
1.45984e-06
-2.8822e-07
-2.89937e-06
3.55245e-05
5.07447e-05
4.27748e-05
0.0001003
0.000131199
-0.000107847
5.4771e-05
4.96636e-05
0.000105985
2.13836e-05
7.51015e-05
7.62399e-05
7.51053e-05
0.000105982
4.96615e-05
0.000131208
5.47675e-05
-0.000107847
0.000123931
-3.0623e-05
0.000100282
4.27831e-05
5.07619e-05
3.55098e-05
-2.90958e-06
-3.47405e-06
0.000140797
-0.000144579
0.000145544
2.01839e-06
1.48274e-06
-3.86715e-05
-5.20407e-05
-4.34886e-05
-0.000100865
2.3062e-05
-0.000113753
-9.95711e-06
6.1601e-05
-3.69393e-05
0.000221887
-1.16366e-05
6.15349e-05
-1.00077e-05
-0.000113702
2.30452e-05
-7.07625e-05
0.000227233
-8.71009e-05
-4.15336e-05
0.000187881
0.00018769
3.94919e-05
-0.000289719
-6.55503e-05
0.000570601
6.44215e-05
0.000592162
-0.000784723
3.44577e-05
0.00110113
-0.00127294
0.000864989
-1.33873e-05
-0.000574899
0.000495815
1.45628e-05
2.75368e-05
4.23863e-05
4.71706e-05
2.41362e-06
-0.000169189
-0.000316893
0.00404994
-0.00334034
0.0135043
-0.0100731
0.00164146
0.0125459
-0.000301007
-0.0130525
0.00954083
-0.00715026
-0.0155564
-0.012897
-0.0129451
-0.0134496
0.0221584
0.00430719
0.003005
-4.1535e-05
-0.00765428
-0.0150409
-0.00705916
-0.0128191
-0.00705875
-0.0150417
-0.0076541
-0.0134502
0.0221582
-0.0128969
-0.0129455
-0.0155569
-0.0071503
0.00954074
-0.0130527
0.0197774
-0.0203076
0.013504
0.00164182
0.0125462
-0.0100732
0.00627275
0.0145493
0.0102898
0.00763736
0.0178883
0.00635959
0.00404826
0.0107167
-0.0112834
-0.0112831
0.00404828
0.00635909
0.0178881
0.00763728
0.0102894
0.0127804
0.0145506
0.00627373
0.00798418
0.00686059
-0.00384617
0.018523
0.0206335
0.0211499
0.0170585
0.0171876
0.0189566
0.0171881
-0.0307933
0.000425049
0.000425488
-0.00886856
0.0170582
0.02115
0.0206336
0.0185237
0.00686024
0.00798414
0.00605186
-0.000419284
-0.000265822
-0.000182607
-0.00662158
-0.00867607
-0.00841238
-0.0195252
-0.0230462
0.00423915
-0.0083913
0.0188799
-0.0144949
0.012085
-0.00929799
0.00741484
-0.00553249
0.00425481
-0.00305059
0.00226986
-0.00156024
0.00112336
-0.000744716
0.000518462
-0.000348199
0.000359339
-0.000391036
0.000389659
-0.000358135
0.000284918
3.29198e-05
0.00023878
-8.72003e-05
0.000227296
-7.07259e-05
7.82103e-05
-1.36406e-05
1.4567e-05
2.75737e-05
4.23534e-05
4.70144e-05
2.21356e-06
-0.000169452
-0.00031717
0.00404973
-0.00334027
-0.00125616
0.00210292
0.000575895
-0.00779312
-0.00779318
0.00210293
-0.00125605
0.000576004
-0.00347681
-0.0203077
0.0197774
-0.00141422
-0.015788
0.00157961
-0.000865111
0.00201696
-0.000288732
-0.000324098
-0.00236976
-0.00113202
-0.00236972
0.0015793
0.00430708
0.00969111
0.0030051
-0.00238545
-0.00238532
0.00969126
0.000548399
-0.00603511
0.00667112
0.00667106
-0.000151904
-0.00603509
0.000238224
0.00162146
0.00201336
0.000967394
-0.00902489
0.000964506
0.000339973
0.013442
-0.00351406
0.00407809
-0.00706517
-0.00924055
-0.0198617
-0.0145363
0.0297135
-0.0154969
0.0185259
0.0185267
0.000441032
0.0138662
-0.000260664
-0.0105865
0.00856486
-0.000121717
-0.00665861
0.00507191
-3.58373e-05
-0.0038486
0.00280114
-4.52461e-07
-0.00205473
0.00143359
1.11267e-05
-0.00102093
0.000679829
1.19194e-05
-0.000486992
0.000301054
1.25207e-05
-0.000264226
-3.27311e-05
-0.000228488
-0.000228491
2.13805e-05
-3.79176e-05
1.30005e-05
-6.02384e-05
-1.95742e-06
3.81063e-05
3.8097e-05
-4.64826e-05
-9.02515e-07
4.5594e-05
4.55907e-05
-3.47746e-05
6.07323e-06
7.72044e-05
7.717e-05
-1.71634e-05
1.61797e-05
-3.50936e-05
-3.51847e-05
-5.85512e-05
-3.26158e-05
-4.77888e-05
-5.26623e-05
-8.11659e-05
-3.29071e-05
5.9107e-05
-9.42043e-05
1.14786e-05
4.19439e-05
0.000128259
-8.33713e-05
-4.06976e-05
-7.03945e-06
-7.31162e-05
2.03294e-07
7.28856e-05
-0.000124469
-4.0791e-07
1.24343e-05
0.000123315
-1.32638e-05
4.94565e-07
1.20752e-05
1.91742e-06
6.19876e-06
1.46278e-05
2.94876e-05
5.92954e-05
0.000127446
0.000163763
4.87355e-05
-0.0188079
0.0199834
-0.0206612
0.0181357
-0.0145893
0.0120751
-0.00955757
0.0074509
-0.00572531
0.0042538
-0.00317781
0.00225079
-0.00163721
0.00110123
-0.000784776
0.000495919
1.47516e-05
-0.000410688
-0.000411887
-0.00028958
0.00041277
7.83417e-05
0.000412916
-0.000640779
-0.000886839
-0.0008886
0.0012529
0.00123111
0.000123165
-0.00179275
5.64152e-05
-0.00163727
-2.6983e-05
0.00181783
-0.00181727
-6.33526e-06
0.00252741
-0.00237351
0.00168358
5.92653e-06
0.0012399
-3.61832e-06
-0.000866362
0.000560047
-2.04442e-06
0.000389652
-3.71698e-06
-0.000144584
2.0397e-06
-1.32526e-05
5.91095e-05
-3.29191e-05
-8.11669e-05
-5.26573e-05
-4.77655e-05
-3.26183e-05
-5.84668e-05
3.02061e-05
-1.71675e-05
2.41909e-06
-0.00011086
4.19134e-05
2.17905e-06
1.14771e-05
0.00012826
-9.41848e-05
0.000123311
1.24377e-05
-5.06511e-06
-3.47737e-05
7.99751e-06
2.07967e-05
4.49753e-05
8.05525e-05
0.000119971
0.000130269
4.16851e-05
-0.000100383
0.00239737
-0.00257428
-0.00598396
-0.00447499
-0.00191406
0.000985781
-0.000157324
-0.000300552
-0.00143139
-0.0157879
-0.000865034
0.00201681
-0.000151679
0.00010785
0.000278788
-0.0105142
0.00981535
-0.0128696
0.00371376
-0.0327656
0.00364114
-0.012817
-0.00011626
0.0124405
0.0123151
-0.0151992
-0.000172758
0.00140648
0.00458864
-0.000218594
-0.00515926
-0.00942906
-0.0113315
-0.0013918
-0.00232509
-0.00311505
-0.00125841
-0.000473332
-0.000997005
-0.000736896
-0.000456186
-0.000534483
-5.34288e-05
-0.000353261
9.12414e-05
0.0147837
-0.0161363
0.0134669
-0.0139185
-0.000341957
0.0160174
-9.17277e-05
-0.000166743
-0.00032422
-0.000288976
-0.00347685
-5.10772e-05
-0.000532607
0.000238564
-0.00406588
-4.14761e-05
0.00693842
-0.00272749
-0.0110276
-0.00146229
0.000905148
-0.000290223
-0.00094035
-0.000875869
-0.000606314
-0.000369451
-0.000213275
-0.000118552
-5.50725e-05
2.16851e-06
5.99337e-05
5.99378e-05
6.19152e-05
-2.62166e-05
-6.97566e-05
-0.000141656
-0.000264668
-0.000284188
2.6543e-05
-0.000273926
-0.000160808
-8.88966e-05
-0.000140151
4.1343e-05
4.95673e-05
0.00327236
-0.00353731
0.00252736
-0.00259544
-5.04382e-05
0.00354149
-0.00489662
-9.20588e-05
0.00638575
-0.00857543
-0.000172426
0.01062
-4.93026e-05
-0.0106421
0.00832474
-6.62397e-06
0.0097922
-0.0126384
-1.78722e-05
2.26953e-05
-9.59931e-05
-4.59171e-05
-2.43902e-05
-0.0063816
0.00476356
4.19586e-06
0.00588936
-0.00782668
-7.2079e-05
8.9628e-05
1.0051e-06
-4.67374e-05
-2.3276e-05
0.0123216
0.000610437
-0.00141432
0.00798405
-0.000366781
-0.000526102
0.00264976
0.00840782
0.0123799
0.00401207
0.00291144
0.000591879
-0.000308098
0.000620067
0.000349882
8.19237e-06
5.5492e-06
2.52599e-06
5.19676e-07
-4.40569e-05
-5.94133e-05
3.57042e-05
3.00087e-05
0.0016836
-0.00181734
0.00123994
-0.00127301
-2.70536e-05
0.00181789
-6.41921e-06
-9.37913e-06
-2.07251e-05
-1.22064e-05
3.16376e-06
6.68801e-06
-0.00237372
-4.22296e-05
-8.73889e-05
0.00280106
-4.39976e-05
-0.00384904
-3.60575e-05
0.00507195
-0.000118975
-0.00665892
-0.000122009
0.00856445
-0.00028514
-0.0105863
-0.000261609
0.013866
-0.000595621
-0.015111
-0.000857238
0.024617
0.0170263
-0.00312479
0.000667588
0.000667512
0.0246174
-0.000857135
-0.015111
-0.00312467
-0.0154962
0.0040784
0.0297132
-0.00210067
-0.014536
-0.0198605
-0.00924014
-0.0230472
-0.00706508
-0.00272731
0.00693845
-0.00406603
0.000964857
0.00201393
-0.00902478
0.000967616
-0.00143148
-0.000533004
-0.000856459
-0.000306377
-8.79549e-05
-0.000193883
0.00019305
-0.000635004
0.000441016
-0.0134681
0.0118079
-0.00926793
0.00724245
0.00724218
7.96031e-07
-0.00567801
1.76237e-05
0.00414995
-3.53297e-06
-0.00317566
4.23029e-05
0.00220227
-2.55835e-06
-0.00164343
4.78642e-05
0.00107629
-3.63489e-06
-0.000800091
5.26981e-05
0.000481957
-7.94282e-06
-0.000388611
6.58412e-05
0.000189825
2.49128e-05
0.000189811
-3.27368e-05
-0.000264245
1.25162e-05
0.000301057
1.62636e-05
-0.000486997
1.19275e-05
0.000679817
9.06816e-06
-0.00102096
1.1093e-05
0.00143353
-8.10085e-06
-0.00205476
-5.66252e-07
4.22398e-05
0.00220224
-3.71251e-05
-0.00164332
0.00107625
-0.00080007
0.000481958
2.29243e-05
-0.000388609
6.5817e-05
-1.79825e-05
-2.79307e-05
5.26978e-05
-5.57087e-05
-9.09519e-05
-0.000154191
-0.000248459
-0.000316279
-0.000169994
0.000155939
0.000156267
-0.0110274
-0.0113313
-0.00139168
-0.00017086
-0.0134674
-0.000663695
0.0118078
6.09782e-05
-0.00926777
-0.000108115
-0.000161139
-0.000558155
6.07171e-05
-0.000543634
-0.000415877
6.67728e-07
-0.00567793
0.00415013
-0.00317579
-3.63795e-06
-0.000275146
-9.83517e-05
-0.000161799
-2.60543e-06
-8.35029e-05
-3.64732e-06
2.07591e-06
-3.64939e-05
-7.94039e-06
8.66042e-09
-6.63158e-05
1.30096e-05
-3.79095e-05
7.12553e-05
2.70727e-05
2.70674e-05
7.12561e-05
3.333e-05
-9.11234e-06
5.7999e-05
-0.000127971
-7.51956e-06
1.80279e-07
9.51887e-05
9.11401e-06
-6.04633e-05
3.17422e-05
8.2136e-05
5.53589e-05
8.06039e-05
4.06868e-05
-9.02788e-06
-9.48512e-06
-9.06738e-06
-2.13818e-06
5.56761e-05
-9.06851e-06
3.33358e-05
5.80154e-05
-9.11004e-06
-2.14753e-05
-7.50318e-06
9.51967e-05
1.78273e-07
-1.30847e-05
-4.19463e-07
-0.000124476
7.28907e-05
1.89396e-07
-7.3117e-05
-7.03669e-06
-1.10417e-09
-9.4747e-06
-7.13211e-06
2.29606e-05
-2.14805e-05
-1.52102e-05
-6.93065e-07
6.14956e-06
2.21515e-09
-1.60132e-07
8.75795e-09
-6.95352e-07
2.29652e-05
-6.02445e-05
-1.51895e-05
-1.79867e-05
2.47289e-06
5.3629e-06
9.93664e-06
1.72099e-05
3.27359e-05
7.81147e-05
-7.79355e-05
-0.00066284
-7.79333e-05
0.000163607
-0.000595296
0.0188802
4.8504e-05
0.0147842
-1.76275e-05
0.0134673
-4.95881e-05
0.0106209
-0.000172584
-0.00857519
0.00745143
7.98204e-05
0.00456043
0.00455461
0.000327842
-0.00582528
0.00778568
0.00784096
0.000354785
-0.00947806
-2.02017e-05
-0.0095588
0.0120752
-0.0139186
0.0160171
-0.000341478
-0.0145902
-0.000172307
0.0123142
0.012441
-0.000116721
-0.0151988
0.0181365
-0.0206613
-9.14906e-05
-0.0161364
0.0199835
-0.0188077
0.0123221
0.000278877
-0.0105141
-0.000409219
0.00981556
-0.000747045
-0.01287
-0.00976522
0.0037137
0.0036419
-0.0327665
0.0123806
0.01192
0.00145532
-0.000583299
-0.00962475
-0.000209101
0.00890782
0.00890907
-0.000824849
-0.00896537
0.000354891
0.00784007
0.00778669
-0.00947802
-2.08557e-05
-0.00582532
0.000328102
0.00455437
0.00456082
7.96432e-05
-0.00335371
0.000216024
0.0024586
0.00248013
7.95053e-05
0.000197316
0.000105276
4.93553e-05
1.14576e-05
-5.14786e-07
-1.1552e-05
-1.14172e-05
2.73846e-05
1.63956e-05
0.000802275
-0.000866383
0.000560105
-0.000574951
-1.33606e-05
0.00086504
-3.65521e-06
-4.3934e-06
-2.05986e-06
-2.06143e-06
-2.31091e-10
-1.12517e-06
-0.000153595
-6.54194e-05
1.95044e-05
4.30406e-05
3.81225e-05
8.12923e-06
-2.51778e-08
-3.00291e-07
1.18777e-06
-1.23845e-05
-2.40556e-05
-4.43441e-05
-7.62438e-05
-0.000124319
-0.000193757
0.000130655
0.00117468
0.00206648
0.00114269
0.000529347
-1.26814e-05
-0.000119549
-0.000117626
-0.00564138
-0.00410179
0.000371651
0.00328213
0.00328283
-0.000350298
-0.00239376
0.000253562
0.00176765
0.00176802
-0.000213256
-0.00177299
0.0001233
0.00123115
0.00125303
-0.00179283
5.64208e-05
-4.26245e-05
0.000251776
0.000627629
0.00033
0.000113065
-4.11785e-05
-5.87283e-05
-0.000886874
6.44111e-05
0.000570715
0.000592203
-0.000888538
3.44205e-05
-3.35832e-05
3.85899e-05
0.000158663
6.21516e-05
-3.16387e-06
-3.85263e-05
-1.79132e-05
-3.41241e-05
-1.00059e-05
-6.60604e-05
-7.99602e-05
-7.20433e-05
-6.19759e-05
-7.49256e-05
-7.95274e-05
-6.61183e-05
8.28387e-05
-7.73243e-05
5.35573e-05
6.62144e-05
-3.48253e-05
-6.55565e-05
-2.00576e-05
1.35296e-06
4.3444e-06
-0.000522235
-1.23944e-05
2.46349e-06
5.92606e-06
-0.00116206
-2.65501e-05
-5.10076e-05
4.78892e-05
-5.09868e-05
-8.73943e-05
-0.000132777
5.92407e-05
0.000127394
-0.000285554
0.0120852
-2.00014e-05
0.00979258
-6.42299e-06
0.00832467
-2.45356e-05
0.00638615
-9.22512e-05
-0.00489664
0.00425409
7.9624e-05
0.00247992
0.00245882
0.000215885
-0.00335338
-0.00328813
-0.000350422
-0.00239316
-0.000119695
0.00117906
0.00213723
0.00414997
-5.14352e-05
-5.13799e-05
0.0014551
-0.00058318
-0.0128185
-0.00962317
-0.000326945
0.00010788
2.2587e-05
-0.000166784
-9.61212e-05
-0.000102448
2.78947e-06
-0.000161051
-0.000108217
-0.00013278
1.77039e-05
2.63444e-06
-4.96443e-05
-2.30481e-05
-1.06772e-05
-5.20233e-06
-2.47398e-06
-5.10559e-07
1.03634e-05
1.20809e-05
1.91733e-06
6.22196e-06
1.46243e-05
2.94385e-05
-4.37244e-05
0.00425455
-6.17962e-05
0.00327253
6.73827e-06
-0.00353731
-1.22152e-05
0.00354145
-5.04506e-05
-0.00259542
0.00225083
-0.00317799
-7.63775e-05
4.94017e-05
4.14828e-05
-0.000264694
-0.000456185
-0.000735903
-0.000314649
-0.000247591
-0.000153667
-9.06302e-05
-0.000141775
-6.98126e-05
-5.5512e-05
-3.09891e-05
-2.61788e-05
6.19259e-05
4.30998e-05
3.81684e-05
-0.000348174
-1.23816e-05
0.000359336
-1.11437e-06
0.000140795
1.18294e-06
4.95142e-07
-2.06197e-06
-4.39078e-06
-9.38218e-06
-2.07821e-05
-4.58553e-05
2.86593e-06
2.59797e-06
4.07048e-06
-0.00447864
0.00476353
-0.00638177
0.00588983
-0.00553257
-7.2218e-05
0.00741469
-0.000119088
-0.00929802
-5.27372e-05
-0.000352583
-0.0144952
-0.00311405
-0.00839165
0.00798472
-0.00841418
-0.0195236
0.00423941
-0.009427
-0.0051586
-0.00867556
-0.00662108
0.000610611
-0.000183512
-0.00025823
-0.000421129
-0.000526524
0.0060516