/*--------------------------------*- C++ -*----------------------------------*\
| =========                 |                                                 |
| \\      /  F ield         | OpenFOAM: The Open Source CFD Toolbox           |
|  \\    /   O peration     | Version:  2306                                  |
|   \\  /    A nd           | Website:  www.openfoam.com                      |
|    \\/     M anipulation  |                                                 |
\*---------------------------------------------------------------------------*/
FoamFile
{
    version     2.0;
    format      ascii;
    arch        "LSB;label=32;scalar=64";
    class       volScalarField;
    location    "1.1";
    object      gradTy;
}
// * * * * * * * * * * * * * * * * * * * * * * * * * * * * * * * * * * * * * //

dimensions      [0 -1 0 1 0 0 0];

internalField   nonuniform List<scalar> 
2658
(
0.008228
0.00481196
0.00147996
-9.78466e-05
-0.0149531
0.0182593
-0.014525
0.0122542
-6.07295e-05
-0.0129845
0.00389111
-0.0327137
0.0205119
0.0208346
0.0169917
0.0173911
0.0189605
0.017134
0.017387
0.0205761
0.0198807
0.0174707
0.00584621
-0.00368684
0.00619647
0.0189351
-0.00404291
0.00118172
0.015443
-7.92552e-07
-0.0154432
0.00404299
-0.0189361
-0.0058461
-0.00619627
0.00368731
-0.000739697
0.00164437
-0.0174759
-0.0198819
-0.0205776
-0.0173877
-0.0171327
0.00838565
-0.000876805
-0.000255461
-0.00389137
0.00873521
-0.0173943
-0.0169919
-0.0208332
-0.020512
-0.0183472
0.00372896
-0.00685875
-0.00623638
0.000461132
-0.00995708
-1.42963e-07
-6.3835e-05
-0.000460935
0.00623605
0.00685921
-0.00372943
0.00375908
-0.00947951
-0.0127846
-0.000640759
-0.0202343
0.0202344
1.75577e-07
0.015969
-0.000224988
0.0121953
2.18826e-05
-0.00928403
-0.00916886
0.000416687
0.00814155
0.00531434
-0.00615919
-0.000710719
0.00849834
0.0128383
-0.00021766
-0.000103663
4.08702e-05
6.98075e-05
5.68938e-05
3.80185e-05
2.20124e-05
-2.46703e-05
1.1983e-05
6.8722e-05
-2.63879e-05
-8.59532e-05
-9.0559e-06
-7.2155e-05
-1.03041e-05
-2.46694e-05
-7.82898e-05
-1.88807e-05
-8.17757e-05
-3.57573e-05
-3.13554e-05
7.33766e-05
-2.56969e-05
-4.6248e-06
1.13565e-05
-7.39745e-05
2.45723e-05
-3.2555e-05
-4.05581e-10
3.25569e-05
-2.45788e-05
7.39744e-05
3.1355e-05
-7.33865e-05
8.17679e-05
3.57509e-05
1.88596e-05
7.82885e-05
2.4667e-05
1.02991e-05
-5.83987e-05
-5.62367e-05
-6.87303e-05
8.59653e-05
9.06597e-06
2.63948e-05
7.72815e-05
1.74539e-05
3.63131e-05
3.55129e-05
6.98294e-05
-3.34646e-05
4.73858e-06
6.52022e-06
-8.24665e-05
8.24915e-05
-4.74134e-06
3.34716e-05
-1.85255e-05
-1.9063e-05
-1.76574e-07
1.90056e-05
3.81245e-08
4.84688e-08
-3.89567e-05
3.83869e-05
1.0187e-07
3.22172e-06
2.18442e-05
-2.50986e-05
9.64697e-05
2.14336e-05
9.11703e-05
0.000108927
0.00011658
8.99406e-05
9.06304e-05
0.000107155
9.0898e-05
9.08086e-05
0.000118625
0.000109747
9.46376e-05
2.96171e-05
4.3292e-09
3.74023e-05
-0.000226613
0.000373858
-0.000521144
0.000792834
-0.00113038
0.00158327
-0.00225424
0.00293774
-0.0041461
0.00504458
-0.00707414
0.00802037
-0.0113099
0.0118084
0.0116268
0.00976515
0.00928513
0.0129851
0.0149526
9.76697e-05
-0.0182597
0.0127846
0.00947871
-0.00375922
0.0327133
-0.00412641
0.000217408
0.000103498
-4.09174e-05
-6.98947e-05
-5.69639e-05
-3.80104e-05
-2.20116e-05
2.46727e-05
-1.19777e-05
-8.88499e-07
-3.31703e-05
1.63386e-05
-4.19583e-05
4.19552e-05
3.31762e-05
8.83228e-07
-1.63478e-05
-1.1329e-05
5.62399e-05
5.83947e-05
-8.68972e-05
6.63752e-05
1.49072e-05
1.72408e-08
-1.07413e-05
9.40014e-06
-3.82415e-06
-1.50844e-06
-1.93357e-10
1.50283e-06
-1.49286e-05
2.56926e-05
-5.34795e-05
4.63501e-06
-5.77093e-05
5.77261e-05
5.34874e-05
3.74673e-09
-3.70976e-05
-4.13429e-05
4.13547e-05
-1.58062e-05
3.71109e-05
-5.81508e-06
2.36381e-09
-2.60794e-05
-1.20015e-05
3.56377e-05
-8.91741e-06
4.71165e-09
3.5623e-09
-1.35697e-09
-6.52448e-05
4.28292e-05
0.000109578
-2.81222e-05
8.62782e-05
-0.00012859
0.000200336
-0.000263673
0.000263657
3.86949e-05
0.000386064
2.41448e-05
-0.00059966
0.00085057
1.46289e-05
-0.00124289
0.00174381
-9.6302e-06
-0.00240498
0.00330222
-7.52902e-05
-0.00431608
0.00578393
-0.000267182
-0.00716641
0.00940791
-0.000830574
-0.0110027
0.0142269
-0.00256645
-0.0167113
-0.00798142
-0.0180739
0.0180741
-0.00118115
-0.00521346
0.00951145
0.00847817
-1.2265e-07
-0.00595082
0.0059508
0.00625653
-8.4036e-08
-0.00751545
0.0075154
0.00307766
-7.74838e-08
-0.0198439
0.0198436
-0.0127109
1.07667e-07
0.0127104
-0.00993676
0.00630377
0.0145278
0.0102442
0.0127368
-0.0194264
0.0135413
0.00173965
0.00114383
0.000124789
-0.00307781
-0.00112495
-0.00328679
-0.0111213
0.00632035
0.0176411
0.00759719
0.00832185
-0.00438719
7.08381e-08
0.00438741
0.00328679
-0.0135414
0.019426
-0.0145291
-0.00630468
0.00993639
-0.00174013
-0.00114397
-0.00832106
-0.00759775
-0.0176408
-0.00632069
0.0111211
-0.0107798
-0.00439921
-0.0163075
-0.00391722
0.0104588
0.00252796
-0.0023348
0.0113534
-0.00237157
-0.00292853
-0.000173029
-0.000248061
-0.000269757
-0.000207691
-0.00013509
-7.93873e-05
-4.3144e-05
-4.07157e-05
-0.000209899
-0.000178033
-0.000159102
-0.000249364
0.000426795
-0.000587634
0.000912228
-0.00127769
0.00182296
-0.00255897
0.00337901
-0.00474016
0.00579143
-0.00814159
0.00916938
-0.0128386
6.02028e-05
-0.0122538
0.014526
-0.0159694
0.0136476
-6.35565e-08
-0.0136475
0.0105491
-0.00951556
0.00772505
-0.00569934
0.00753149
0.000100469
0.00451605
0.000371791
-0.00579092
-0.000479302
-0.00384699
-0.00439355
0.000385181
0.00353986
0.00386781
-0.00491276
-0.000518619
0.00606471
0.000392835
-0.00690074
0.00945099
-0.000192029
-0.00928504
-0.000431024
0.000255493
-0.00873539
0.0107794
-0.0113538
0.00233453
0.000735808
-0.000189841
-9.64229e-08
-1.23889e-06
-0.000120502
-0.000181005
-0.000152519
-0.000103155
-6.18022e-05
-3.31765e-05
3.82259e-06
-9.40114e-06
1.07333e-05
1.57986e-05
-1.69473e-08
-6.63857e-05
8.68959e-05
-4.58526e-05
6.35799e-05
4.14113e-05
3.6749e-05
7.38254e-05
5.51559e-05
-1.6164e-05
-0.000166963
0.000351368
-5.89811e-06
-0.000509271
0.000404786
-0.000262194
-4.08763e-05
-4.38736e-05
4.90383e-05
4.9107e-05
4.88834e-05
3.20022e-05
4.09416e-05
-1.43306e-05
5.1737e-06
3.23268e-05
-4.35905e-05
-0.000145684
-4.60942e-05
-4.9751e-05
-0.000109291
-0.000130148
3.64018e-05
2.99367e-05
4.4904e-05
0.00037146
0.000326715
-0.000427588
-0.000371209
5.75902e-05
0.000296191
-4.54468e-05
-3.67669e-05
-0.000140357
-0.000318177
-0.00032022
-0.000617698
-0.000278459
-0.000210524
-0.000368326
-0.000551236
1.98543e-05
3.80572e-05
9.66931e-05
0.00153648
0.00139541
-0.00190632
-0.00164499
0.000193184
0.00121989
-0.000814586
0.00011002
0.000618832
-8.92799e-05
0.000700532
-0.000944804
0.000116404
0.000775268
-0.000487592
6.12233e-05
1.10733e-05
-2.96302e-05
-0.000386004
5.1041e-06
0.00027527
-2.97899e-05
-0.00017535
-3.66872e-05
-1.8881e-05
-9.54813e-06
1.03073e-05
3.68425e-05
4.29273e-05
4.10832e-05
-4.7479e-05
3.22675e-05
3.23444e-05
1.84323e-05
-1.13261e-05
-2.38821e-06
3.08638e-05
4.1604e-05
-0.000146479
-0.000324081
-0.000630387
-0.000625698
-0.00115484
-0.00111541
-0.00198847
-0.00112278
-0.000607942
-0.00123333
-0.00270265
-0.000285078
-5.7045e-05
0.000125501
0.00491275
0.00439401
-0.00606442
-0.00531347
0.000479324
0.00384712
-0.00306845
0.000313775
0.00224551
-0.000265376
0.00257565
-0.00353961
0.000336515
0.0028469
-0.00209278
0.000205371
3.63909e-05
2.07915e-05
-5.76837e-05
-0.000850457
5.5069e-06
0.000599649
-2.41485e-05
-1.43773e-05
-0.000596182
0.00093253
-0.00126015
0.00126019
3.31852e-05
-0.00186544
3.82345e-05
0.00246997
2.36309e-05
-0.00346808
6.13053e-05
0.00447554
-3.5528e-05
-0.00596082
7.45817e-05
0.00749827
-0.000290205
-0.00942558
-1.56148e-07
0.0116246
-0.0013608
-0.0133392
-0.00112755
0.0159033
-3.12387e-07
-0.0159034
0.00798007
0.0167122
0.00256534
-0.0142263
-0.000154403
0.0110023
0.000829954
-0.00940743
-3.38808e-05
0.00716725
0.000266647
-0.00578328
-1.19107e-05
0.00431658
7.47732e-05
-0.00330207
-1.17613e-06
0.00240511
9.45101e-06
-0.00174368
3.92346e-06
0.00124295
-1.46017e-05
-2.22975e-05
-9.36643e-05
-4.6643e-05
-1.55096e-05
2.94745e-05
-1.997e-08
-2.5218e-09
-7.69156e-08
6.68554e-09
8.84308e-08
2.23879e-07
5.40861e-07
2.26769e-06
6.60175e-07
-2.81445e-07
-9.71025e-07
0.00518658
-0.00518734
-0.00719981
-0.00709494
-0.00181602
-0.00386985
-0.0119712
0.0335038
-0.00252532
0.000538965
-4.89156e-05
-0.000310807
0.00112755
0.01334
0.00135994
-0.0116241
-1.22862e-07
-1.19481e-07
-1.29345e-07
0.000290015
-0.0074982
0.00942564
7.89485e-08
-0.000246539
-0.000214708
-7.47792e-05
0.00596091
3.53423e-05
-0.00447562
6.62031e-08
-7.99618e-09
-3.16181e-08
-3.71715e-08
-3.33393e-05
0.00186546
-0.00246994
0.00346827
-6.12216e-05
-0.000157646
-0.000100912
-3.29414e-08
-1.6049e-08
5.73448e-10
-3.54708e-09
-3.87135e-05
0.000439481
-6.13507e-09
-0.000439498
1.43853e-05
0.000596207
3.3824e-05
-0.000932573
2.22754e-05
5.76505e-05
5.57777e-09
-3.39026e-05
1.15087e-08
2.96199e-05
9.54593e-06
0.000175359
2.97668e-05
-0.000275271
1.88817e-05
-0.000200335
6.52545e-05
0.000128589
6.08501e-09
-8.62738e-05
2.81376e-05
-0.000109577
-2.9622e-05
-4.2828e-05
-3.38793e-06
-2.25543e-05
-1.30228e-05
8.91503e-06
2.60753e-05
-3.56483e-05
1.20034e-05
-3.69173e-05
2.61253e-05
1.47313e-09
-2.61283e-05
-1.33153e-05
7.21512e-05
3.69154e-05
5.82049e-06
1.3029e-05
-1.13592e-05
2.25638e-05
3.38601e-06
5.95638e-06
-2.49514e-05
-1.11761e-05
3.69329e-05
3.47741e-05
-7.2337e-06
9.67579e-06
5.57639e-05
-7.21203e-05
7.94735e-05
-3.82855e-06
1.5279e-09
7.71009e-09
3.55155e-09
-1.30798e-09
3.84722e-09
-5.72532e-09
-3.1383e-09
3.84575e-09
-2.64075e-08
-1.75127e-08
6.56152e-08
6.33089e-08
-8.08685e-08
-1.27318e-07
1.53717e-09
-4.54618e-07
-0.00951196
0.00521369
-0.00449999
0.00746064
-0.00746089
0.00449972
-0.0148068
0.00153574
-0.00593429
0.0134298
0.00341062
-0.000288822
0.0125219
-0.0107532
-0.00680632
-0.0174784
-0.00578963
-0.00857647
-0.0119648
-0.00702576
0.000757098
0.0062131
0.00192375
-1.67419e-06
2.51305e-07
-0.00192295
0.0148065
0.00593411
-0.00153613
0.00448866
-0.00341085
-0.0125224
0.000288473
0.00142146
-0.00252817
-0.010459
0.00391636
0.0163065
0.00439907
0.00735613
-0.00607183
-0.00621457
8.75214e-07
-0.00217018
-0.00448881
0.000414991
-0.00038879
-0.00714449
0.0060717
0.0012874
-0.00735621
-9.31653e-05
-0.000125004
0.00112467
-0.000735851
0.00018968
0.000430928
-0.00156919
-0.00415273
-0.00210496
6.70414e-05
0.00791833
0.00690189
-0.00945112
-0.00849749
0.000710852
0.0061592
-0.000392936
-4.12664e-06
-0.00210206
-0.0011572
8.73843e-05
0.000103637
8.41473e-05
6.07114e-05
6.75869e-05
-0.00104983
-0.000139508
3.40576e-05
0.000873347
-2.94327e-05
-0.00111872
0.00162367
-5.62509e-05
-0.0022782
0.00175643
-0.00123248
-0.000145085
-0.0024507
-8.73228e-05
-0.0043013
0.00328146
-0.000245634
-0.00451575
-0.000100582
-0.00753137
0.00569894
-0.000371941
-0.00772484
-2.14063e-05
-0.0121959
0.00928327
-0.000417382
-0.000654651
-0.00407225
-0.0122556
-0.0122495
-0.0189657
-0.00152728
0.0305826
-0.00268411
-0.00290779
-0.00147987
-0.000658524
-0.000368185
-0.000205415
-0.000107969
-4.89642e-05
-4.87871e-05
3.56603e-05
1.53808e-05
0.00124938
4.46788e-08
-0.00124948
0.00179887
1.72157e-08
-0.00254458
0.00254452
-0.00179886
-1.97073e-08
-1.33348e-08
1.06222e-09
1.13004e-05
3.47864e-05
-1.10508e-06
0.000154527
4.8885e-08
-0.000154556
0.000375571
2.94423e-08
-0.000566443
0.000566384
-0.000375529
1.02509e-05
3.80321e-05
-3.87049e-05
3.87147e-05
-1.91558e-05
-8.79281e-06
-3.80489e-05
0.000166981
1.61929e-05
-5.51806e-05
0.000262278
5.91614e-06
-0.00040486
0.000509286
-0.000351339
1.0859e-06
-1.12993e-05
-1.03097e-05
4.31352e-05
-5.08154e-06
0.000226627
4.07428e-05
-0.000371445
-6.12081e-05
0.000427609
8.92805e-05
-0.000618792
-0.000110034
0.000814917
0.00127765
0.000145159
-0.00175654
0.00227799
5.63401e-05
0.00123273
-0.000873452
0.00111872
2.9436e-05
0.0005753
8.10663e-05
-0.000912124
0.000587644
0.000371335
-0.000296228
-5.75783e-05
-0.000426737
4.08572e-05
0.000249358
0.000159137
4.54336e-05
-0.000326698
0.000178044
0.000209929
-6.35844e-05
-3.68318e-05
-4.1393e-05
0.000229501
-3.67523e-05
-3.47864e-05
-7.38071e-05
0.00023504
-8.9942e-05
-9.06431e-05
4.74934e-05
-4.10797e-05
-4.29292e-05
-3.23167e-05
-4.09446e-05
-2.94749e-05
1.54993e-05
4.66861e-05
1.43454e-05
4.98391e-05
9.36161e-05
0.000169003
0.00010945
0.000210752
0.000273558
-0.00027389
-0.000169025
-3.8236e-05
-0.000374941
0.000374356
0.000368505
0.000608291
0.000392063
-0.000392957
-0.000448236
0.000448833
0.00123531
0.00720105
0.00709646
0.00181936
-0.0118081
-0.000232586
-0.0116266
-0.000539072
0.000876664
-0.0305829
0.00237138
0.00292825
0.000172623
0.000247781
0.000269445
0.000207561
0.00013501
7.93677e-05
-5.48093e-06
0.000521215
8.00485e-05
-0.000775248
-0.000116456
0.000944815
0.000160007
-0.00121983
-0.000192923
0.00164553
0.00255908
0.000245477
-0.00328178
0.00430117
8.73916e-05
0.002451
-0.00315966
-3.06335e-05
0.00350672
-1.76421e-08
-0.00480138
0.00480127
-0.00350676
3.05771e-05
0.00315991
6.26916e-05
5.1904e-08
7.35303e-08
2.1654e-08
8.36039e-08
-1.02798e-05
-1.84947e-05
-9.65882e-05
2.5334e-05
1.38826e-05
-6.98553e-05
-3.55381e-05
-3.63264e-05
-7.94915e-05
-1.7446e-05
-7.72735e-05
-0.000116538
-0.000108908
3.78485e-06
-9.12018e-05
-2.14439e-05
-3.23331e-05
-4.90107e-05
-4.91027e-05
-4.88753e-05
-0.000118617
-9.08114e-05
4.58478e-05
-9.08995e-05
-0.000107206
0.00023843
-3.74097e-05
3.66901e-05
-2.38163e-08
-0.000109753
-9.46661e-05
-3.19575e-05
4.36338e-05
-5.23961e-06
-2.98696e-05
-0.000373817
-4.48709e-05
0.000487707
0.000145705
4.68069e-05
-3.62036e-05
-0.000792773
0.00113057
0.000139604
-0.00153638
-0.000205328
0.00209313
0.00190634
0.000265337
-0.00224571
-0.000313814
0.00306918
0.00473995
-0.00337863
-0.00010352
-0.000125001
-0.00284652
-0.000336216
-0.00257532
0.000152443
0.000103083
6.17628e-05
3.31697e-05
-1.10782e-05
-2.07962e-05
-3.63921e-05
0.000100871
0.000157545
-6.08752e-05
6.0751e-05
9.77941e-05
0.0005184
-0.00665905
-0.000293106
0.00014875
0.000764994
-0.0107302
0.000232195
0.000217012
0.000132675
8.38654e-05
5.07188e-05
2.88546e-05
1.50651e-05
6.44176e-06
0.000774835
-0.000854641
0.000854699
-0.000774757
-6.48256e-06
-1.50576e-05
-2.88689e-05
-1.54283e-05
-0.00162358
-3.57002e-05
-1.85865e-05
1.1409e-05
4.90449e-05
0.000108044
-6.2675e-05
-2.80444e-05
-3.39512e-05
-6.06916e-05
-6.75195e-05
0.00104997
0.000320432
0.00013179
-3.75784e-05
-0.0015831
0.00225455
0.000224967
-0.00293757
0.00414663
0.000314282
-0.00504406
0.00707434
0.000292833
-0.00791882
-0.000765481
0.0107307
0.0113104
0.000154359
-0.00801978
3.41168e-05
0.000285561
5.84065e-05
-1.90186e-05
0.000280974
0.000618045
0.00111605
0.000556307
0.00198852
0.00113199
0.00387048
0.00269839
0.0119709
-0.0335035
0.000739277
-0.00164277
0.0119641
0.00578902
0.0174786
0.00680634
0.0107529
-0.0083855
0.00252577
0.00152689
-0.00976478
9.61907e-07
0.000120299
0.000180855
-9.23741e-08
-1.14573e-07
-0.000148873
0.000246411
0.000214536
-9.78248e-05
-0.000132866
-2.99886e-08
-3.17538e-08
-8.38995e-05
-5.0785e-05
-5.60324e-05
-0.00569971
0.00633051
-2.36431e-08
-0.00840897
0.00840881
-0.00633064
5.6043e-05
0.00570014
0.000100643
-1.36198e-05
-0.000274651
2.81953e-05
-0.000128515
-0.000173366
-0.0005615
0.000148943
0.00951568
-0.0105489
0.000105142
-9.06051e-08
-5.47624e-08
-6.08775e-08
-1.03906e-07
-0.00625696
0.00108655
4.87257e-05
0.000310452
-0.000414858
-0.00847911
0.00217026
0.000388256
0.00714404
0.00702505
-0.0134292
0.00857581
-0.000757363
-0.0012882
-3.0477e-07
0.00412619
0.00995692
-0.000192669
7.24626e-07
0.000220778
0.000224981
0.000192846
-0.00481226
-0.0082287
-0.00807662
2.29262e-08
6.36494e-05
7.85881e-07
0.000640564
6.04066e-07
1.26082e-07
1.19773e-08
-0.000100676
0.000205676
0.000368307
-0.000149033
-0.000105439
0.000173487
1.37662e-05
0.000630719
0.000324184
0.000146605
4.38893e-05
3.6802e-05
0.000140413
0.000318276
-9.65206e-05
-0.00139529
0.000625824
0.0011551
-0.000125101
0.00665997
-6.6104e-05
4.45094e-06
-8.68869e-05
0.00115786
0.00210346
0.00210573
0.00415401
0.0122493
0.00156907
0.0040721
0.0122551
0.00268331
0.000654662
-0.000221247
0.000658116
0.00121023
0.00290822
0.000563
-8.41331e-05
-0.00182258
-4.15932e-05
-3.08569e-05
-3.22899e-05
2.43255e-06
4.88849e-05
0.000129152
0.000274808
-0.000217091
-0.00120851
1.2083e-05
1.2272e-06
-3.87427e-06
-0.000700462
1.85713e-05
-0.000575166
-8.10746e-05
1.1173e-05
2.49525e-05
-5.95662e-06
-9.67577e-06
-8.7029e-09
7.23704e-06
-3.47746e-05
-3.69334e-05
1.33198e-05
7.2125e-05
-5.57693e-05
-6.55097e-06
-2.18681e-05
1.91108e-05
8.7995e-06
1.85809e-05
-1.38283e-05
0.000125271
-0.00386673
-0.000314441
0.000192032
-0.00142175
-0.00108682
9.32857e-05
1.1323e-05
-2.62795e-09
-2.39296e-05
7.22847e-09
3.42166e-08
8.46703e-08
-0.000225027
-0.000384978
-8.00297e-05
-0.000159996
-0.000238421
-0.000229487
-0.000235019
-0.0127364
-0.0102443
0.00184379
-2.70199e-07
-0.00184398
0.0183477
0.0080757
-3.23769e-05
-1.84274e-05
1.13499e-05
5.8807e-06
0.000262163
-0.000351356
0.000509256
-0.000404815
4.0873e-05
0.000249318
-7.384e-05
0.000234988
-0.000108933
-0.000116611
-8.99656e-05
-9.06505e-05
-0.000107179
-9.09127e-05
-9.0826e-05
-0.000118642
-0.000109766
-9.46936e-05
-2.96439e-05
3.66801e-05
-4.28429e-05
-0.000109586
2.8109e-05
-3.3806e-06
-8.62776e-05
2.0982e-09
8.62715e-05
-2.8124e-05
0.000109582
2.96392e-05
4.28399e-05
-3.66835e-05
3.74153e-05
3.99749e-08
9.47398e-05
0.000109776
0.000118636
9.08286e-05
9.09219e-05
-4.58262e-05
4.14173e-05
3.67595e-05
7.38209e-05
-4.74662e-05
9.0673e-05
8.99635e-05
0.000116591
0.000108937
9.12496e-05
-3.75651e-06
2.14797e-05
8.80819e-06
3.80663e-05
0.000154577
-4.2098e-08
3.87009e-05
-3.80407e-05
-8.81083e-06
-2.14569e-05
3.79388e-06
-5.5183e-05
1.61502e-05
0.000166939
1.09796e-06
0.000375522
-0.000375552
-4.2982e-08
-0.000566394
-6.44919e-06
-0.000774745
2.9421e-05
0.000575167
0.000587557
8.10814e-05
-0.000912172
-0.000618857
0.00037123
-5.76194e-05
-0.000296217
-0.000426793
2.20118e-05
3.80248e-05
5.69313e-05
6.98062e-05
4.10875e-05
-0.00010337
-0.000217255
0.00412655
-0.00328649
-0.0111211
0.00632075
0.0107799
0.00439932
0.0163067
0.0039168
0.00680668
0.0174792
0.00578956
0.0119643
0.00857606
0.00593366
-0.01343
0.00448853
-0.000415143
-0.00153598
0.0148067
-0.00449912
0.00746089
2.05802e-08
-0.00746143
0.00449936
-0.0148061
-0.00593358
0.01343
-0.0119637
-0.00857578
-0.0057893
-0.0174788
-0.00680608
-0.00391653
0.0104593
0.0113534
0.0111212
-0.0107794
-0.00439898
-0.00632083
-0.0176413
-0.00759801
-0.0102443
-0.0145292
-0.0063042
0.00993653
-0.012711
-0.00173996
0.0198439
-0.0198438
0.012711
-0.00993676
0.00630356
0.0145282
0.0102445
0.0127371
0.00759781
0.0176405
0.0208341
0.020512
-0.00372938
0.0183477
0.00685925
0.00807559
0.00623607
-6.32562e-05
1.19642e-06
6.36731e-05
-1.42424e-07
0.00995727
-0.00995713
0.000460901
-0.00623628
-0.00807576
-0.00685966
-0.0183478
-0.0205125
-0.0208334
-0.0169917
-0.0173909
-0.01896
-0.0171337
-0.0173869
-0.0205771
-0.0198803
-0.0174725
-0.00584466
0.00164393
-0.000739401
0.0118083
-0.0113112
0.00801956
-0.00707426
0.00504463
-0.00414648
0.00293759
-0.00225453
0.0015833
-0.00113044
0.000792836
-0.0005212
0.000373823
-0.000226622
-0.000209899
-0.000178024
-0.000159109
-0.000249337
-0.000262228
-5.9161e-06
0.000351363
-0.000166957
-1.61692e-05
5.5198e-05
-0.000234992
2.46825e-05
-2.2005e-05
-3.80065e-05
-5.68837e-05
-6.97891e-05
-4.08466e-05
0.000103418
0.000217238
-0.00412649
0.00328643
0.00112481
0.00307764
-0.000735954
0.00751542
-0.00751532
-0.00307757
-0.00112474
0.000736036
0.00233474
-0.0113537
-0.0104589
0.010753
-0.0125222
-0.00341074
0.000288698
0.00142159
-0.00252793
0.00237166
0.00292849
2.92659e-08
-0.00292831
0.0034107
-0.00448849
0.00847842
0.000414663
0.00951138
-0.00951178
-0.00847877
-1.24939e-07
0.00595093
0.00625657
-0.00625679
0.00108658
-0.00595086
0.000388316
3.28927e-07
0.00621309
0.000757167
-0.00702489
0.00192367
-3.77597e-07
-5.23e-07
7.55906e-10
0.00798071
-0.00619654
-0.0189352
0.00404252
-0.0154439
0.0180734
-0.0159029
0.0133392
-0.0133396
-0.00136037
-0.011002
-0.000829924
0.00940719
-0.00716713
-0.000266341
0.00578324
-0.00431662
-7.45375e-05
0.00330188
-0.00240518
-9.30506e-06
0.00174366
-0.00124297
1.46629e-05
0.000850468
-0.000599658
2.41651e-05
0.000386026
-0.000275297
2.97654e-05
0.000175332
6.52287e-05
0.000128557
-0.000128574
3.37654e-06
2.25566e-05
-5.77046e-05
-5.34677e-05
7.74412e-09
3.71025e-05
-3.70966e-05
-4.13395e-05
6.71083e-09
4.19557e-05
-4.19547e-05
-3.31698e-05
1.32977e-10
8.24568e-05
-8.24794e-05
4.74808e-06
-2.95889e-08
-1.90067e-05
1.9069e-05
-1.38815e-05
6.98655e-05
3.55462e-05
3.63493e-05
1.74811e-05
7.73084e-05
2.64139e-05
-6.87162e-05
-1.19787e-05
5.57775e-05
-7.2116e-05
7.95183e-05
3.4778e-05
3.69466e-05
9.09194e-06
7.21899e-05
1.03286e-05
-5.83833e-05
-9.39982e-06
1.13316e-05
-5.62334e-05
8.59729e-05
3.83375e-06
1.51742e-06
-4.31348e-05
-7.93813e-05
-0.00013506
-0.000207604
-0.00026956
-0.000247896
-0.000172725
0.0002328
0.0116256
0.00976578
0.00928459
0.0129856
-0.0128386
0.00916973
-0.00814183
0.0057916
-0.00474021
0.00337897
-0.00255931
0.0018228
-0.00127772
0.000912173
-0.000587652
0.000426774
-4.08616e-05
0.000404842
-0.000509287
0.000566453
-0.00085466
-1.05218e-08
0.000854605
-0.00124947
0.00111869
-0.000873461
0.00123259
-0.00162359
5.62705e-05
-0.00175662
0.000145212
0.00127753
-0.000110013
0.00081471
0.000944626
0.000160051
-0.00139537
-0.00153648
0.00104977
-0.000116462
-0.000700514
8.92899e-05
0.000427516
-0.000326727
4.54491e-05
0.000159092
-3.48083e-05
-3.67622e-05
4.74581e-05
-8.59835e-05
-2.64067e-05
-7.73041e-05
-1.74704e-05
-3.63409e-05
-3.55334e-05
-6.98493e-05
1.38262e-05
-1.85888e-05
-4.74019e-06
3.34605e-05
-6.5389e-06
-5.57741e-05
8.66282e-07
1.1984e-05
7.21139e-05
6.87186e-05
5.62277e-05
-1.13417e-05
-1.63608e-05
3.31757e-05
-3.88264e-10
-2.82372e-09
-7.71309e-10
1.78179e-08
3.4887e-08
4.45707e-08
8.33574e-08
4.22482e-08
3.42438e-08
-1.08904e-08
2.41745e-07
0.00438705
-9.32197e-05
-0.00735586
0.00128806
-0.0163061
-0.00714387
0.0125218
-0.000288738
-0.00142152
-0.00108675
-4.88668e-05
0.000539056
-0.000876992
-0.000255177
-0.0038915
-0.00375925
0.00947877
0.0127847
-0.0182596
9.7666e-05
0.0145257
-0.0122534
0.0149526
6.02464e-05
-0.00407158
-0.0122562
-0.0122485
-0.0119695
-0.00709748
-0.0072001
-0.00123532
-0.00270017
-0.00181898
-0.00387095
-0.00198772
-0.00113152
-0.000608289
-0.00036875
-0.000555539
-5.81985e-05
-0.0002857
6.66652e-05
-0.0107302
-0.00945135
0.00690144
0.0061586
0.000710981
-0.00849732
0.000190983
-1.12063e-06
-0.00237152
0.00252814
-0.00233475
-0.000124954
0.00607188
-0.000388742
-0.00217049
0.00153609
-0.00521371
-0.0011816
-0.00518665
6.7317e-08
2.70073e-07
7.08167e-07
3.39178e-07
-1.35253e-07
-1.68257e-07
-1.19865e-07
-1.82771e-07
-8.03187e-08
-1.75862e-09
5.33252e-09
-2.94827e-05
2.94789e-05
4.09402e-05
-1.43796e-05
-4.98274e-05
-0.000109455
-0.000210804
-0.000280815
1.90824e-05
-0.00111534
-0.000617756
-0.000320307
-0.000131497
3.7652e-05
9.67173e-05
-0.00209308
-0.00190653
0.00139529
0.00121974
0.000193041
-0.00164524
0.00224529
0.000313769
-0.00306868
0.00384675
0.000479311
-0.00531338
-0.000393241
-0.00606495
0.004394
0.000518527
-0.00665908
0.00791796
0.000765057
0.00014878
-0.000120342
-0.000180927
-0.000385292
-0.00353991
0.00257546
0.000336254
-0.00386714
0.00491288
-0.000314578
0.000125629
-0.00210473
-0.00415306
-0.00152642
-0.00252515
0.00838595
-0.0107528
0.0335032
-0.00156938
0.00873542
-0.00268346
-0.0082282
-0.00481233
-0.00148024
-0.00290811
-0.000654076
-3.86669e-06
-0.00210214
-0.00115699
-0.00115442
-0.000625334
-0.00031809
-0.000140331
-0.000145635
-4.66799e-05
3.61999e-05
6.75937e-05
-0.00104987
-0.000944817
0.000700533
0.000618773
0.000109998
-0.000814726
-0.00016006
-0.00010312
-0.00015242
-0.000265536
3.64116e-05
0.000205315
0.0015363
-0.000139624
-0.00010087
0.00240504
-1.4178e-06
-0.00330233
7.49475e-05
0.00431645
-1.19427e-05
-0.00578381
0.000267063
0.00716671
-3.40172e-05
-0.00940761
0.000830153
0.0110019
-0.000154701
-0.0142266
0.00256615
0.0167112
0.00368716
0.00112729
-0.00031069
0.000310686
-0.0167117
-0.00256553
0.0142264
-0.00112753
0.015903
-0.00798054
-0.0180738
-1.05913e-07
0.015443
-0.00404255
0.0189362
0.00584502
0.00619649
0.00118147
0.005214
0.00217026
-0.00192391
-0.0062135
0.00702553
-0.000757292
0.00714406
-0.00607157
-3.53986e-07
6.48363e-08
-6.18096e-09
-2.29594e-08
2.68278e-08
5.39362e-08
0.00136094
-0.0116239
0.00942511
-0.0074983
0.00596108
-0.0059614
-3.5483e-05
0.00447571
6.14006e-05
-0.00346802
2.3777e-05
0.00246991
3.83578e-05
-0.00186546
3.32872e-05
0.00126019
2.22987e-05
-0.000932532
3.38778e-05
0.00059619
1.4371e-05
-0.000439517
3.87031e-05
0.000263647
1.88615e-05
-0.000200361
-6.89097e-09
0.00020034
-6.52259e-05
-0.000175345
-2.97724e-05
0.000275275
5.08911e-06
-0.000386048
-2.4151e-05
0.000599657
5.47881e-06
-0.000850551
-1.4629e-05
0.0012429
3.86023e-06
-0.00174386
9.46428e-06
-3.8367e-05
0.00186539
6.84698e-09
-0.00126028
0.000932549
-0.00059622
0.000439509
-1.8034e-08
-0.000263664
-1.88769e-05
-9.54173e-06
-2.9629e-05
-1.43969e-05
-4.663e-05
-9.36848e-05
-0.000169218
-0.000274028
-0.000374805
-0.000392432
-0.000447974
0.000448064
0.00518651
0.00720035
0.00123503
0.000391535
0.0116238
-1.71847e-07
-0.00942549
-0.000290238
0.00749778
7.49722e-05
0.000214664
1.66141e-07
0.000290773
4.63194e-08
-3.43136e-08
3.58096e-05
-0.00447584
0.00346797
-0.00247004
-2.37656e-05
-2.57475e-08
-3.82784e-08
-1.2199e-08
-3.3298e-05
-9.26135e-09
-3.38441e-05
-1.53812e-08
1.10835e-09
-3.86806e-05
-4.46653e-09
3.23849e-09
5.77064e-05
-2.25594e-05
2.45756e-05
-3.2567e-05
3.25596e-05
-2.45759e-05
7.3977e-05
-1.13503e-05
3.13648e-05
-7.33661e-05
-1.49248e-05
-8.90137e-09
-6.63784e-05
8.69314e-05
2.46903e-05
7.8305e-05
1.88966e-05
3.57913e-05
8.17907e-05
3.56533e-05
-1.19943e-05
-2.60785e-05
-8.91598e-06
7.47659e-09
-8.46317e-09
8.90472e-06
-7.39912e-05
-3.13636e-05
1.13379e-05
-2.571e-05
1.49114e-05
6.63715e-05
4.55829e-09
-1.07458e-05
9.40263e-06
5.83899e-05
-1.03211e-05
-7.21685e-05
-9.0895e-06
-3.69457e-05
2.61256e-05
2.60769e-05
-4.7768e-10
1.30292e-05
2.5697e-05
4.63838e-06
5.81984e-06
3.69271e-05
-2.61248e-05
-1.33136e-05
9.38492e-10
-5.81944e-06
-1.30323e-05
5.34772e-05
-4.66164e-06
9.53354e-06
-5.39606e-09
6.52771e-09
1.1068e-08
4.8925e-08
-4.30268e-08
8.56967e-08
-0.00024631
4.46963e-07
0.000246498
0.00017303
0.000154373
-0.0118086
-0.000232269
0.0107303
-0.00076526
-0.0069022
0.000392654
0.00531335
-0.000479113
-0.00384745
-0.00579142
0.00037147
0.00451563
-0.00569978
0.000100408
-0.00569971
0.00772435
-0.00951551
2.18484e-05
-0.00928455
0.000417142
0.00814112
-0.00916899
-0.0061602
0.00849748
-0.000710495
0.0128381
-5.9547e-05
0.0122537
-0.0145248
-9.74725e-05
-0.0149534
-0.0129851
-0.00928544
-0.000191317
0.00945041
-0.00976531
-0.0116267
0.00252532
-0.000539103
0.000876811
-0.0305829
0.000255633
-0.000430824
0.00389115
-0.0327133
0.00375949
-0.0127847
-0.00947926
0.00481184
4.9441e-07
0.000192645
0.000640618
0.020234
-4.21542e-09
0.0159687
-0.0159685
0.000224833
-0.0121962
-2.15123e-05
0.00951615
-0.00772425
0.00928329
-0.000417161
0.00569893
-0.000100555
0.00570014
-0.00451546
-0.000371759
0.00328144
-8.75237e-05
0.00315989
-0.00245066
-0.000245746
-0.000630349
-0.000324003
-0.000146503
-4.38573e-05
-3.67799e-05
-4.3626e-05
5.24059e-06
2.98925e-05
4.48865e-05
-0.000487647
-0.000427639
0.000326706
0.000296186
5.75751e-05
-0.000371282
-8.93302e-05
-6.17852e-05
-3.31715e-05
-4.54258e-05
1.03106e-05
3.6854e-05
6.36029e-05
-0.000238381
4.89138e-05
3.20155e-05
3.23143e-05
4.2941e-05
4.91345e-05
0.000107249
-0.000229454
4.11024e-05
4.16334e-05
6.07322e-05
8.42468e-05
0.000103753
8.72982e-05
-0.000173502
-0.00121008
-0.000657824
-0.000368243
-0.00056307
-1.39093e-05
0.000100662
0.000148686
-0.00753179
0.00840894
3.08685e-08
0.00633057
-0.0063304
5.61067e-05
0.00480124
-1.60721e-08
0.00350691
-0.00350687
3.06263e-05
-0.00227809
-5.63718e-05
0.00162365
-0.00123261
0.00175638
-0.000145166
2.79099e-05
-0.000274858
-0.000205611
-0.000108028
-0.000129152
3.40764e-05
3.5683e-05
-0.00111876
-2.94578e-05
0.000774779
-0.000575247
0.000873387
-8.1053e-05
3.08835e-05
-4.88676e-05
-4.89981e-05
-1.13546e-05
-2.41245e-06
3.23129e-05
4.90495e-05
3.239e-05
1.8524e-05
9.66098e-05
-2.53264e-05
3.89551e-05
-8.9319e-08
-3.83849e-05
2.50903e-05
-9.64964e-05
-1.91137e-05
-2.18384e-05
-7.41291e-08
-2.29787e-08
1.85688e-05
6.44724e-06
1.50622e-05
1.10832e-05
6.11922e-05
0.000371445
-4.07255e-05
2.07921e-05
0.000116488
0.00077522
-8.00573e-05
-5.76453e-05
-2.22951e-05
5.76237e-05
0.000100879
0.000157645
0.000269728
0.000248113
3.40313e-05
-0.00802045
0.000292846
0.00665866
-0.000518717
-0.00439413
0.000385416
0.00306856
-0.000313694
-0.00224587
-0.00337855
0.000245923
0.00245078
-0.00315974
8.74812e-05
-0.00328178
0.00430112
-5.61279e-05
-0.00480113
-0.000100549
-9.4073e-08
2.30035e-08
-5.47875e-07
0.000221217
-0.000220611
-0.000192322
-0.000640509
0.0182594
-0.0202341
-0.000189701
4.88563e-05
-0.000148686
1.34728e-06
0.000120695
-2.0269e-08
9.78495e-05
-0.000214494
-7.48067e-05
-0.000157542
-6.13017e-05
6.0828e-05
5.18472e-08
1.2551e-08
6.16895e-09
-7.70338e-09
-6.06038e-09
6.48506e-10
9.91591e-10
-1.51987e-06
4.31396e-05
7.93808e-05
0.000135082
0.000207615
1.20515e-06
-0.00293771
0.000225088
0.00209284
-0.000205365
0.00190608
0.000265424
0.00164515
-0.000193052
-0.00121996
-0.00182275
0.00255886
-8.43184e-05
-9.68227e-05
-3.80912e-05
0.000210536
0.000368309
0.000607592
0.000374898
0.000274016
0.00016929
9.3738e-05
0.000109368
4.9791e-05
4.6648e-05
1.54766e-05
1.43309e-05
-4.09616e-05
-3.20642e-05
-3.23417e-05
0.000226603
4.07303e-05
0.000209884
-3.68614e-05
-4.14202e-05
0.000229461
-3.8324e-06
3.31789e-05
6.17968e-05
0.000103148
0.000152505
0.000181054
-9.77574e-05
-6.08387e-05
-0.000336388
-0.00284666
-0.00257549
0.00353947
0.00386688
0.00414613
0.000314479
-0.00504456
1.1836e-05
0.00707397
5.68888e-05
0.000285109
0.0113095
0.00181691
0.000739476
-0.0335041
0.0198815
0.0174754
-0.00164475
0.00709599
0.0119698
0.0205778
0.0173876
-0.00838584
0.0171327
0.0189653
0.0173942
-0.00873533
0.016992
0.0122549
0.01225
0.00152673
0.00386964
0.00270354
0.00198782