/*--------------------------------*- C++ -*----------------------------------*\
| =========                 |                                                 |
| \\      /  F ield         | OpenFOAM: The Open Source CFD Toolbox           |
|  \\    /   O peration     | Version:  2306                                  |
|   \\  /    A nd           | Website:  www.openfoam.com                      |
|    \\/     M anipulation  |                                                 |
\*---------------------------------------------------------------------------*/
FoamFile
{
    version     2.0;
    format      ascii;
    arch        "LSB;label=32;scalar=64";
    class       volVectorField;
    location    "1.7";
    object      flux;
}
// * * * * * * * * * * * * * * * * * * * * * * * * * * * * * * * * * * * * * //

dimensions      [0 1 -1 1 0 0 0];

internalField   nonuniform List<vector> 
5712
(
(-0.274391 0.481377 0.300977)
(-0.35073 0.27764 0.988166)
(-0.650352 0.779234 0.239215)
(-0.95075 0.511611 1.01305)
(-0.970284 0.851103 0.179266)
(-1.6742 0.630774 1.04654)
(-0.744474 1.33354 0.282168)
(-1.89598 1.65719 1.60946)
(-0.605817 1.7547 0.346563)
(-1.33112 2.15154 2.21186)
(-0.906057 1.13594 0.34445)
(-1.37882 0.988262 1.61327)
(-0.812312 0.721251 0.332729)
(-1.06641 0.572622 1.34027)
(-0.357488 0.362496 0.345867)
(-0.409086 0.245339 1.19828)
(-0.61444 0.804273 0.2093)
(-0.704364 0.818575 0.130291)
(-0.792156 0.694593 0.559736)
(-0.785558 0.813721 0.333167)
(-0.622203 1.0865 0.20461)
(-0.767838 0.965439 0.110565)
(-0.916306 1.25778 0.610795)
(-0.821386 1.0133 0.303419)
(-0.223989 0.338607 0.229718)
(-0.169252 0.242561 0.167609)
(-0.278413 0.1907 0.736005)
(-0.188021 0.141952 0.520597)
(-0.519712 0.404025 0.173802)
(-0.417396 0.328392 0.126216)
(-0.88593 0.246047 0.723764)
(-0.64359 0.199551 0.528393)
(-0.685716 0.741404 0.407925)
(-0.713695 0.766392 0.173071)
(-0.763375 0.754199 0.353142)
(-0.731885 0.631176 0.157926)
(-0.270773 0.583211 0.163327)
(-0.21046 0.459159 0.381752)
(-1.61939 0.46042 1.40112)
(-2.1676 0.523839 0.379031)
(-1.04674 0.74128 0.502336)
(-1.28474 0.738803 0.168818)
(-2.17335 1.56079 1.80089)
(-2.82067 1.61474 0.487861)
(-1.12414 1.10172 0.468665)
(-1.28713 1.13639 0.160499)
(-1.20278 0.633828 1.00314)
(-1.69859 0.534427 0.310842)
(-1.05074 0.687417 0.515277)
(-1.39167 0.489563 0.179167)
(-0.616362 0.319712 0.874411)
(-0.991797 0.329137 0.277611)
(-0.119301 0.264442 0.256256)
(-0.0403103 0.376571 0.12707)
(-0.125435 0.138542 0.369333)
(-0.045306 0.168831 0.144523)
(-0.359867 0.362026 0.277511)
(-0.145587 0.503513 0.149849)
(-0.492324 0.216208 0.359793)
(-0.181566 0.254244 0.138762)
(-0.35215 0.399343 0.349875)
(-0.134795 0.681539 0.199843)
(-0.371917 0.27751 0.310157)
(-0.119454 0.458555 0.1355)
(-0.63256 0.105465 0.454801)
(-0.201544 0.271971 0.164021)
(-0.815618 0.0877972 0.156162)
(-0.275573 0.202622 0.0547018)
(-0.990177 0.719725 0.516834)
(-0.49345 0.890486 0.36065)
(-0.906499 0.746161 0.318057)
(-0.537101 0.888883 0.233705)
(-0.925051 0.879159 0.570231)
(-0.598614 0.886378 0.469958)
(-0.813843 0.898888 0.310886)
(-0.610135 0.877241 0.269091)
(-0.715797 0.637242 0.304107)
(-0.425708 0.865294 0.207611)
(-0.716814 0.651968 0.432636)
(-0.367018 0.853276 0.292688)
(-0.935499 0.736533 0.208451)
(-0.596434 0.884016 0.15377)
(-0.937705 0.737144 0.1045)
(-0.601489 0.882649 0.0859866)
(-0.859908 0.908432 0.199374)
(-0.644828 0.867364 0.172233)
(-0.870319 0.906445 0.101482)
(-0.647134 0.859813 0.0982048)
(-0.7727 0.589831 0.201679)
(-0.490201 0.86964 0.133413)
(-0.800181 0.569992 0.102205)
(-0.501872 0.873162 0.0660021)
(-0.732864 0.7263 0.273653)
(-0.318864 0.858712 0.149339)
(-0.340115 0.916975 0.207146)
(-0.416259 1.28841 0.248054)
(-0.7358 0.769604 0.377581)
(-0.349214 0.99494 0.269003)
(-0.298121 0.909147 0.302437)
(-0.423819 1.40362 0.426472)
(-0.77571 0.688468 0.179846)
(-0.316776 0.754334 0.0855884)
(-0.384451 0.920256 0.121523)
(-0.418145 1.23659 0.141424)
(-0.814053 0.681224 0.0884843)
(-0.324161 0.705176 0.036997)
(-0.417613 0.93009 0.0520222)
(-0.436158 1.22635 0.052256)
(-0.154492 0.223639 0.342814)
(-0.169012 0.294542 0.613571)
(-0.0521549 0.57209 0.231604)
(-0.103329 1.00646 0.68382)
(-0.451017 0.276016 0.400253)
(-0.477254 0.315542 0.599922)
(-0.17563 0.733699 0.2841)
(-0.314984 1.13969 0.714305)
(-0.577827 0.341586 0.452636)
(-0.640432 0.34564 0.541834)
(-0.282475 0.925992 0.36424)
(-0.482118 1.26427 0.694494)
(-0.492068 0.993133 0.519048)
(-0.0359147 1.05747 0.608633)
(-0.55369 0.848866 0.399758)
(-0.690557 0.827945 0.38748)
(-0.379069 1.21713 0.421593)
(-0.0220233 1.06224 0.609393)
(-0.293525 1.01 0.573994)
(-0.501668 0.865216 0.573529)
(-0.812239 0.755972 0.593229)
(-0.5765 1.39638 0.850974)
(-0.408334 0.969238 0.49573)
(-0.498919 0.962858 0.390175)
(-0.440465 0.865143 0.343823)
(-0.383973 0.870965 0.386282)
(-0.604117 1.58821 0.599041)
(-0.147218 0.0855417 0.712388)
(-0.12043 0.103012 0.638009)
(-0.0844938 0.184574 0.824846)
(-0.0836034 0.427275 0.795962)
(-0.413648 0.121029 0.652441)
(-0.345671 0.137867 0.606202)
(-0.251909 0.253145 0.813556)
(-0.238998 0.475477 0.778471)
(-0.514768 0.179283 0.564264)
(-0.430163 0.152104 0.55202)
(-0.328909 0.342165 0.761605)
(-0.294015 0.540775 0.749008)
(-0.231499 1.04645 0.446789)
(-0.29673 1.02492 0.352944)
(-0.481245 0.949269 0.426149)
(-0.500914 0.925098 0.374827)
(-0.573548 0.822751 0.470042)
(-0.521089 0.745188 0.425809)
(-0.647801 0.626946 0.50965)
(-0.560745 0.550733 0.493831)
(-0.446769 0.447916 0.698008)
(-0.376329 0.629789 0.719621)
(-0.367244 0.955425 0.416731)
(-0.38157 0.915444 0.364766)
(-0.486231 0.969067 0.405798)
(-0.376141 0.946729 0.397212)
(-0.445661 0.849125 0.423838)
(-0.317323 0.790661 0.456993)
(-0.388491 0.709484 0.47923)
(-0.261967 0.633298 0.545578)
(-0.458527 0.476312 0.623364)
(-0.298042 0.63287 0.729386)
(-0.414473 0.963568 0.346677)
(-0.184296 1.08285 0.272758)
(-0.357853 0.961967 0.236648)
(-0.382872 1.11129 0.299334)
(-0.50807 0.926213 0.461104)
(-0.656921 0.955754 0.557993)
(-0.559705 0.905464 0.318415)
(-0.810994 0.964665 0.501177)
(-0.286172 0.8823 0.203334)
(-0.313136 0.896628 0.265122)
(-0.368194 0.874749 0.30464)
(-0.106994 0.869871 0.252168)
(-0.319704 0.954914 0.0586594)
(-0.61187 1.11666 0.198013)
(-0.303716 0.951085 0.0291575)
(-0.657692 1.11624 0.0705138)
(-0.55456 0.87973 0.162089)
(-1.00228 0.977653 0.335505)
(-0.564389 0.873003 0.0587228)
(-1.06561 0.97601 0.11542)
(-0.243552 0.885735 0.0303459)
(-0.528604 0.894602 0.169811)
(-0.222099 0.885846 0.0157335)
(-0.564983 0.894329 0.0591385)
(-0.337763 0.747006 0.201215)
(-0.250773 0.709856 0.204029)
(-0.472932 0.483134 0.22891)
(-0.183632 0.539159 0.144329)
(-0.344442 0.742306 0.319755)
(-0.0573746 0.691747 0.257644)
(-0.410618 0.476245 0.375934)
(-0.0207751 0.542969 0.262427)
(-0.325703 0.757076 0.0494704)
(-0.380135 0.707363 0.111779)
(-0.49598 0.493444 0.113918)
(-0.22746 0.540539 0.0661893)
(-0.270315 0.76014 0.0625466)
(-0.449676 0.700123 0.0806134)
(-0.439778 0.508709 0.0879895)
(-0.29949 0.540541 0.0666652)
(-0.0945812 0.0687208 0.510407)
(-0.0826092 0.0456138 0.311147)
(-0.0726195 0.0312223 0.0984634)
(-0.0681608 0.0393212 0.576642)
(-0.0619944 0.0263959 0.332341)
(-0.0547244 0.0245169 0.109043)
(-0.278711 0.0959322 0.489873)
(-0.224709 0.0557814 0.307954)
(-0.191617 0.0416152 0.104417)
(-0.180869 0.0770622 0.567027)
(-0.142624 0.0610214 0.332646)
(-0.121831 0.0519176 0.108989)
(-0.337491 0.109963 0.450601)
(-0.286438 0.0889151 0.283074)
(-0.262486 0.0881052 0.0933181)
(-0.217025 0.135034 0.552425)
(-0.173268 0.108691 0.333842)
(-0.16205 0.0967272 0.111708)
(-0.257391 0.966906 0.2349)
(-0.22322 0.860268 0.130247)
(-0.216095 0.787547 0.0362658)
(-0.433822 0.894724 0.306247)
(-0.322122 0.818122 0.202565)
(-0.267934 0.759183 0.0701638)
(-0.413984 0.644989 0.368966)
(-0.298662 0.590252 0.254423)
(-0.238337 0.559984 0.0877494)
(-0.433468 0.442761 0.428964)
(-0.335271 0.376996 0.278861)
(-0.288323 0.348726 0.0927982)
(-0.276771 0.206342 0.546393)
(-0.178177 0.148976 0.342345)
(-0.136725 0.124779 0.119613)
(-0.623812 0.877399 0.276433)
(-0.529709 0.799597 0.158597)
(-0.451856 0.736435 0.0513868)
(-0.405597 0.906963 0.291881)
(-0.330759 0.813256 0.210822)
(-0.269035 0.74288 0.0797792)
(-0.365609 0.676552 0.349678)
(-0.277545 0.570656 0.258206)
(-0.216051 0.511179 0.0951916)
(-0.311384 0.444425 0.435537)
(-0.219451 0.348258 0.306228)
(-0.163814 0.308809 0.109905)
(-0.327441 0.219102 0.553209)
(-0.179031 0.147941 0.347303)
(-0.0977805 0.117227 0.123642)
(-0.42202 1.09831 0.0119149)
(-0.570038 1.07153 0.0812021)
(-0.335101 1.19904 0.114818)
(-0.431284 1.0729 0.165679)
(-0.458277 1.23435 0.0895953)
(-0.671226 1.07295 0.102399)
(-0.41055 1.49405 0.224504)
(-0.595166 1.13277 0.21251)
(-0.000906688 0.848567 0.024142)
(-0.0285591 0.858269 0.0408584)
(0.0208039 0.839042 0.0257701)
(-0.00406023 0.776674 0.0425428)
(-0.118718 0.952358 0.0193616)
(-0.133207 0.893865 0.056241)
(-0.0495935 0.936848 0.0346352)
(-0.0265565 0.79854 0.0737537)
(-0.0280176 0.927747 0.128537)
(-0.0961118 0.918543 0.0628538)
(-0.379319 0.853641 0.162853)
(-0.552076 0.910297 0.0943085)
(-0.266449 1.13226 0.0861374)
(-0.14854 1.02021 0.150288)
(-0.403268 1.13207 0.136683)
(-0.400427 1.15068 0.0344903)
(-0.625375 1.23239 0.248337)
(-0.689054 1.276 0.0583469)
(0.0246954 0.941857 -0.0812751)
(0.168695 0.978415 0.0242778)
(-0.306176 0.842914 0.0692375)
(-0.288202 0.81882 0.0498229)
(-0.291532 1.02341 0.046656)
(-0.22464 1.05087 0.0411148)
(-0.0406901 0.662283 0.388057)
(-0.0214206 0.358691 0.174101)
(-0.0270805 0.620629 0.105763)
(-0.0112818 0.396823 0.0644522)
(-0.0783121 0.67241 0.394163)
(-0.00633517 0.361984 0.180763)
(0.0143301 0.619407 0.133499)
(0.0344324 0.394499 0.0817413)
(-0.369848 0.663459 0.38908)
(-0.0931597 0.36381 0.194215)
(-0.251865 0.617996 0.192973)
(-0.064401 0.411053 0.133085)
(-0.365244 0.60185 0.137961)
(-0.110564 0.429988 0.0978038)
(-0.442044 0.609548 0.0650868)
(-0.140944 0.426457 0.0621537)
(-0.358148 0.854036 0.509544)
(-0.47977 0.727276 0.451967)
(-0.330503 0.851661 0.239128)
(-0.467352 0.727753 0.247682)
(-0.580035 0.944783 0.553938)
(-0.610458 0.850884 0.51911)
(-0.552805 0.957011 0.272773)
(-0.577175 0.844194 0.274526)
(-0.225596 0.832798 0.210014)
(-0.373559 0.606206 0.215657)
(-0.261008 0.866161 0.433643)
(-0.371511 0.597009 0.360893)
(-0.350468 0.872245 0.141449)
(-0.449788 0.725211 0.14827)
(-0.386339 0.88411 0.0771965)
(-0.453884 0.717332 0.0888841)
(-0.575777 0.983548 0.166994)
(-0.566344 0.838356 0.165941)
(-0.602611 0.985162 0.0899097)
(-0.568173 0.82809 0.0969508)
(-0.227582 0.826307 0.121515)
(-0.361062 0.608732 0.131581)
(-0.247443 0.824669 0.0662138)
(-0.367209 0.605175 0.0833728)
(0.0100508 0.545691 0.185047)
(-0.0479172 0.36541 0.12676)
(-0.289242 0.479723 0.183805)
(-0.174693 0.31092 0.127309)
(0.0321007 0.507299 0.289427)
(-0.0316118 0.327513 0.166875)
(-0.267963 0.460256 0.27452)
(-0.153977 0.290738 0.176356)
(-0.00842049 0.559919 0.110175)
(-0.0586222 0.388158 0.0914237)
(-0.295472 0.487931 0.115829)
(-0.190654 0.320384 0.0818918)
(-0.0262226 0.561059 0.059745)
(-0.0692431 0.401924 0.056318)
(-0.296465 0.486855 0.0731195)
(-0.196989 0.322724 0.0477205)
(0.0284914 0.104271 0.456214)
(0.0326397 0.0546965 0.309742)
(-0.00603736 0.192305 0.225369)
(0.000357553 0.105223 0.223953)
(0.118745 0.11123 0.454545)
(0.119482 0.0669621 0.318729)
(0.0105364 0.204846 0.226388)
(0.0178034 0.125524 0.222956)
(0.0274832 0.136717 0.473371)
(0.0821855 0.100795 0.33468)
(-0.0621264 0.22669 0.229623)
(-0.0350182 0.163475 0.217448)
(0.410347 0.525138 0.559001)
(0.388103 0.814936 0.609788)
(0.223186 0.378987 0.504859)
(0.173103 0.363923 0.333983)
(0.0217628 0.261727 0.185094)
(0.424181 0.79618 0.578024)
(0.431297 0.553149 0.528202)
(0.172046 0.324547 0.484799)
(0.254864 0.326403 0.395542)
(0.0381301 0.215987 0.248492)
(-0.416863 0.830598 0.541383)
(-0.323769 0.652361 0.484051)
(-0.282772 0.517989 0.38287)
(-0.26082 0.403557 0.291029)
(-0.15243 0.255313 0.177194)
(0.0323309 0.0294626 0.255779)
(0.0292172 0.0220424 0.222112)
(0.00245095 0.0617573 0.234924)
(-0.000960373 0.0461241 0.262724)
(0.102468 0.0413876 0.266447)
(0.0979963 0.0284555 0.220602)
(0.00783374 0.085803 0.23853)
(-0.000685333 0.0684814 0.260808)
(0.103642 0.0713826 0.282387)
(0.121735 0.0546027 0.223875)
(-0.0217126 0.123276 0.242986)
(-0.03202 0.100444 0.259832)
(0.204898 0.805014 0.436027)
(0.0894106 0.772986 0.30871)
(0.322839 0.543754 0.400624)
(0.198078 0.516231 0.278043)
(0.144128 0.352861 0.31067)
(0.106993 0.351437 0.24901)
(0.163738 0.297226 0.285911)
(0.139356 0.269363 0.241484)
(-0.0105117 0.184864 0.226867)
(-0.0446946 0.151367 0.259573)
(-0.153024 0.757077 0.362612)
(-0.0962582 0.683358 0.315208)
(-0.0423314 0.584966 0.316214)
(0.0389494 0.508754 0.275226)
(-0.0378871 0.454439 0.265907)
(0.030618 0.39893 0.239484)
(-0.0618162 0.346021 0.230183)
(-0.00988442 0.30823 0.225905)
(-0.0728011 0.225231 0.177931)
(-0.0821059 0.219138 0.24664)
(-0.207388 0.601428 0.282584)
(-0.188234 0.481923 0.191308)
(-0.394916 0.606142 0.187506)
(-0.237236 0.471664 0.112956)
(-0.326509 0.725661 0.373712)
(-0.326009 0.598476 0.2883)
(-0.495217 0.72543 0.259134)
(-0.399661 0.591956 0.209467)
(-0.306234 0.50589 0.150911)
(-0.177941 0.405742 0.0904595)
(-0.151255 0.490157 0.219209)
(-0.148886 0.406176 0.161002)
(-0.465868 0.607 0.188415)
(-0.204573 0.465145 0.0893105)
(-0.512324 0.603495 0.0678528)
(-0.229419 0.46463 0.038905)
(-0.552361 0.723416 0.201581)
(-0.407967 0.604236 0.146342)
(-0.589388 0.716838 0.0692287)
(-0.437878 0.602824 0.0575029)
(-0.372526 0.515436 0.161251)
(-0.144163 0.400021 0.0715296)
(-0.417376 0.514653 0.0625407)
(-0.167415 0.405341 0.0326122)
(-0.234785 0.394078 0.12269)
(-0.182101 0.329313 0.111245)
(-0.172892 0.264787 0.104738)
(-0.255154 0.273953 0.151835)
(-0.149716 0.379327 0.171005)
(-0.166728 0.321498 0.15921)
(-0.146881 0.25273 0.133197)
(-0.236395 0.259264 0.193584)
(-0.271946 0.410959 0.125235)
(-0.179113 0.336026 0.0796349)
(-0.195757 0.271577 0.0765805)
(-0.293278 0.289737 0.103673)
(-0.33252 0.420589 0.0368579)
(-0.194601 0.335987 0.0173998)
(-0.248804 0.28208 0.00641545)
(-0.30257 0.293902 0.0182801)
(0.0286907 0.0662137 0.152241)
(0.0299317 0.0579571 0.0636205)
(0.0333408 0.0478686 0.0188146)
(0.00159879 0.283854 0.173013)
(0.0105584 0.151957 0.0451626)
(0.0117021 0.124069 0.0120628)
(0.104185 0.0645738 0.155794)
(0.108321 0.0633032 0.069406)
(0.107348 0.0560538 0.0213432)
(0.00970939 0.309362 0.173747)
(0.0301936 0.180531 0.04731)
(0.0300013 0.152762 0.0132702)
(0.132854 0.0891329 0.148682)
(0.144759 0.0992773 0.0702959)
(0.147019 0.101409 0.0183139)
(-0.0185497 0.344298 0.172543)
(0.0295988 0.227324 0.0487055)
(0.0393251 0.201915 0.0115185)
(0.0458312 0.718532 0.192373)
(0.0386484 0.662381 0.0991552)
(0.026534 0.623458 0.023082)
(0.141126 0.488442 0.168925)
(0.142572 0.46672 0.0823234)
(0.131887 0.453487 0.0199085)
(0.114944 0.354083 0.16094)
(0.127729 0.344671 0.0774238)
(0.124725 0.341795 0.0211376)
(0.142584 0.301087 0.155372)
(0.149924 0.287523 0.0728492)
(0.144938 0.278634 0.0157604)
(-0.0453996 0.39458 0.173553)
(0.0135234 0.282136 0.0484037)
(0.0176953 0.253907 0.00742977)
(-0.140146 0.614564 0.241078)
(-0.0803892 0.557268 0.122802)
(-0.0435722 0.519563 0.0336735)
(0.0353231 0.45428 0.211822)
(0.0764222 0.415577 0.105626)
(0.0982583 0.393842 0.0292199)
(0.0353717 0.374862 0.188169)
(0.0868872 0.342157 0.0930188)
(0.109137 0.324086 0.0271414)
(0.0168853 0.357047 0.173802)
(0.0718684 0.312594 0.0747633)
(0.087482 0.28722 0.0186129)
(-0.0805753 0.481304 0.188619)
(0.0185339 0.318836 0.045708)
(0.0300803 0.284696 0.0112668)
(0.00121534 0.19889 0.0667329)
(0.00142485 0.124027 0.0236683)
(0.00167217 0.0851044 0.00503344)
(0.00247828 0.0664891 -0.00594122)
(0.0102228 0.223463 0.0278433)
(0.00553483 0.134511 0.010382)
(0.00445111 0.0897047 0.00291372)
(0.00411466 0.0681531 -0.00108403)
(0.000804511 0.199962 0.0706254)
(0.00277108 0.123963 0.0258738)
(0.00626843 0.0853143 0.00692996)
(0.00926244 0.0669455 -0.00343717)
(0.0166716 0.228325 0.0353373)
(0.010115 0.137301 0.0143221)
(0.0111754 0.0916212 0.00689927)
(0.0113989 0.069178 0.0031584)
(-0.00775408 0.199586 0.0756546)
(0.00100843 0.122792 0.028654)
(0.00904854 0.085837 0.0102835)
(0.0167041 0.0671041 0.000559775)
(0.00639246 0.23302 0.0601156)
(0.00809651 0.139109 0.027188)
(0.0099965 0.0940223 0.0100129)
(0.0109358 0.0698265 0.00206534)
(0.00139626 0.250664 0.0453353)
(0.00476878 0.147184 0.0245835)
(0.00453569 0.0956475 0.00764082)
(0.00431125 0.0717887 -0.001009)
(-0.00802047 0.258066 0.0416031)
(-0.000419275 0.152818 0.0262358)
(0.00404138 0.0984258 0.0142604)
(0.00664463 0.0741975 0.0079554)
(-0.0347648 0.212688 0.0622019)
(-0.00732929 0.130686 0.0269326)
(0.00255976 0.089411 0.00780056)
(0.00941288 0.0681981 -0.00588643)
(-0.0540516 0.175003 0.0527995)
(-0.0126839 0.115129 0.0225677)
(-0.000984657 0.082232 0.00963866)
(0.016613 0.0654288 -0.00560479)
(-0.0236297 0.187048 0.0736481)
(-0.003042 0.118607 0.0281073)
(0.00575422 0.083664 0.00916845)
(0.0145852 0.0639242 -0.00369325)
(-0.0441753 0.161427 0.0662231)
(-0.0095913 0.108642 0.0253797)
(-0.00162484 0.0790211 0.0101108)
(0.0143531 0.062938 -0.00910701)
(-0.0372897 0.229936 0.0494992)
(-0.00877461 0.139831 0.0246619)
(0.00372633 0.093389 0.00922273)
(0.0123458 0.070935 -0.00203781)
(-0.0607806 0.183173 0.0402477)
(-0.0151174 0.11988 0.0196452)
(-0.0011348 0.0842641 0.0101289)
(0.0196405 0.0673612 6.46552e-05)
(-0.0417014 0.239685 0.0360065)
(-0.0115106 0.146076 0.0212711)
(0.00353653 0.0963021 0.0119463)
(0.0149219 0.0730786 0.00693682)
(-0.0655683 0.186814 0.0273908)
(-0.0172928 0.123302 0.0162737)
(-0.00191383 0.0860496 0.0104134)
(0.0205183 0.0686535 0.00580733)
(0.000548815 0.1508 0.084321)
(0.000857527 0.106768 0.0285003)
(0.00149013 0.0777606 0.00524535)
(0.00316063 0.0631854 -0.0119654)
(0.00169945 0.0991971 0.082403)
(0.00121263 0.086214 0.0261229)
(0.000833329 0.0688177 0.0076164)
(0.00287007 0.0594201 -0.0161503)
(0.00330547 0.151327 0.0842283)
(0.00295938 0.106323 0.0288824)
(0.00477782 0.0776989 0.00591481)
(0.00865558 0.0630736 -0.0114208)
(0.00694497 0.103554 0.0799007)
(0.00410116 0.0874123 0.0254131)
(0.00270766 0.0692454 0.00786161)
(0.00780538 0.0597509 -0.0156924)
(-0.014114 0.155098 0.0826019)
(-0.00179629 0.10637 0.0289311)
(0.00497061 0.0782891 0.00871803)
(0.0146179 0.0635476 -0.00778563)
(-0.00566485 0.116659 0.0747489)
(0.00119374 0.0912854 0.0240501)
(0.00340074 0.0708108 0.00944322)
(0.0137428 0.0611873 -0.0126149)
(-0.0017139 0.153539 0.0724777)
(0.00448617 0.103964 0.0266931)
(0.0076959 0.077066 0.0116487)
(0.0147838 0.0648661 -0.000148018)
(0.000448156 0.128013 0.0820166)
(0.00368552 0.0940409 0.0268878)
(0.00282278 0.0728821 0.0130393)
(0.0138463 0.0610368 -0.0146464)
(-0.0375968 0.143324 0.0643744)
(-0.0072585 0.101105 0.0237417)
(-0.000152543 0.0754073 0.011492)
(0.0192278 0.0620267 -0.00328295)
(0.00338823 0.0478315 0.0643987)
(0.00169782 0.0696224 0.0183179)
(0.00113207 0.0550999 0.00669979)
(0.00223302 0.0167305 -0.0106753)
(0.00616887 -0.00882518 0.0254293)
(0.0024677 0.0604588 0.00664051)
(0.00124127 0.0496294 0.00179335)
(0.00106616 0.0175065 -0.00210004)
(0.00710529 0.0571357 0.0668753)
(0.0040518 0.072718 0.0196068)
(0.0023808 0.0563683 0.00734553)
(0.00567711 0.0176421 -0.0101506)
(0.0158206 0.00249203 0.0266455)
(0.00657606 0.0638876 0.00720138)
(0.00308786 0.0507141 0.00224709)
(0.00272381 0.0178791 -0.00162774)
(0.00474509 0.0746896 0.068626)
(0.00453844 0.0782182 0.0210716)
(0.00324273 0.0582314 0.00887996)
(0.00930023 0.0175867 -0.00879731)
(0.0202349 0.0218498 0.0273951)
(0.0092631 0.0697034 0.00785369)
(0.00465 0.0522768 0.00282143)
(0.00427562 0.01808 -0.00106782)
(-0.00223228 0.0963479 0.0621217)
(0.00416358 0.0848195 0.0198708)
(0.00407062 0.0611 0.0100976)
(0.0129591 0.019082 -0.00677895)
(0.0164098 0.0427754 0.0267979)
(0.0100285 0.0762188 0.00812963)
(0.00548766 0.0545804 0.00382106)
(0.00539348 0.0188544 -6.78413e-05)
(-0.018814 0.110992 0.0570622)
(0.000654609 0.0909387 0.0197303)
(0.00149283 0.0646798 0.0107054)
(0.0121617 0.022146 -0.00371039)
(0.00573449 0.0491701 0.0242135)
(0.0086396 0.0812581 0.00857715)
(0.0049056 0.0567366 0.00511365)
(0.00543333 0.0195348 0.00126072)
(-0.0436042 0.118646 0.0394296)
(-0.00454395 0.0977907 0.0156004)
(0.000718573 0.0662533 0.00740263)
(0.0139263 0.0211326 -0.00121412)
(-0.0136063 0.0387565 0.0227481)
(0.00206235 0.0868553 0.0109488)
(0.002879 0.0607917 0.00634557)
(0.00489027 0.0207455 0.00320284)
(-0.0331921 0.115624 0.0457282)
(-0.00124922 0.0947606 0.0160509)
(0.00116015 0.06507 0.00797099)
(0.0129392 0.0211287 -0.00280061)
(-0.00736613 0.0368607 0.0230847)
(0.00501894 0.0842642 0.00967233)
(0.00404024 0.0587297 0.00577202)
(0.0053912 0.0200287 0.00226536)
(-0.0530966 0.119761 0.0315748)
(-0.00846151 0.0999402 0.0148332)
(-0.000500675 0.0670785 0.00779267)
(0.0151324 0.0197536 0.0011061)
(-0.0190857 0.036915 0.0201589)
(-0.000760663 0.0890648 0.0112829)
(0.00178972 0.0621188 0.00673176)
(0.00454947 0.0208693 0.00411381)
(-0.0601773 0.122277 0.0220414)
(-0.0122569 0.102173 0.0131692)
(-0.0021469 0.0688032 0.00853908)
(0.0148975 0.0201556 0.0050145)
(-0.0240131 0.0410041 0.0165261)
(-0.00371681 0.0914162 0.010974)
(0.00037815 0.0637374 0.00727593)
(0.00391189 0.0213682 0.00524892)
(0.00108771 0.0566229 -0.00053416)
(0.000460674 0.0411629 0.00020084)
(0.000224698 0.0271908 0.000198584)
(0.000124339 0.0153274 0.00013046)
(8.51784e-05 0.00493753 9.37346e-05)
(0.00142744 0.056037 -7.96117e-05)
(0.000697593 0.0410846 0.0001369)
(0.000363444 0.0272133 0.0001107)
(0.000206241 0.0153491 7.05609e-05)
(0.000142495 0.00494485 5.03455e-05)
(0.00259485 0.0573354 0.000274769)
(0.00106549 0.0415156 0.000600941)
(0.000515862 0.0273571 0.000409517)
(0.000285311 0.0154026 0.000251142)
(0.000195534 0.00495925 0.000177486)
(0.00320659 0.0569544 0.000798686)
(0.00155037 0.0415362 0.00059388)
(0.000807021 0.0274351 0.000356997)
(0.000458765 0.0154515 0.000212547)
(0.000317365 0.00497466 0.000149083)
(0.00344136 0.0587456 0.00112665)
(0.00133143 0.0420171 0.0010722)
(0.000635205 0.0275721 0.000666322)
(0.000350308 0.0154974 0.000399943)
(0.000239994 0.00498649 0.000281116)
(0.00428094 0.0581245 0.00317502)
(0.00203988 0.0420701 0.00200003)
(0.00106073 0.0276947 0.00114839)
(0.000603682 0.0155717 0.000675594)
(0.000417925 0.00500973 0.000472565)
(0.00222595 0.0589541 0.00375512)
(0.00103836 0.0426735 0.00233855)
(0.000537279 0.0280352 0.00134352)
(0.000305967 0.0157384 0.00079203)
(0.000212055 0.00505928 0.000554744)
(0.00159984 0.0603408 0.00548679)
(0.000614921 0.0435358 0.00310194)
(0.000289618 0.0285179 0.00173142)
(0.00015958 0.0159755 0.00101292)
(0.000109561 0.00512992 0.000708438)
(0.00341405 0.060171 0.00194758)
(0.00134726 0.0426176 0.00156767)
(0.000653081 0.0278794 0.000943782)
(0.000363213 0.015643 0.000562879)
(0.00024967 0.00502929 0.000395531)
(0.00163886 0.0641814 0.00210215)
(0.000557528 0.0433441 0.00147765)
(0.000255144 0.0280831 0.000866759)
(0.000139311 0.0157171 0.000514277)
(9.52143e-05 0.00504933 0.000360953)
(0.00360205 0.06046 0.00133337)
(0.00155774 0.0424606 0.00124433)
(0.00078984 0.0277319 0.00075875)
(0.000445922 0.015563 0.000452925)
(0.00030787 0.00500494 0.000317982)
(0.0015519 0.0640897 0.00253687)
(0.000554769 0.0430804 0.00154472)
(0.0002619 0.0279198 0.00086848)
(0.000144357 0.0156358 0.00050845)
(9.89478e-05 0.00502503 0.000355071)
(0.00263986 0.0607124 0.00253446)
(0.000886858 0.0431481 0.00186329)
(0.000397771 0.0281845 0.00110896)
(0.000215466 0.0157933 0.000660435)
(0.00014704 0.00507405 0.000464053)
(0.00155176 0.0653619 0.00283499)
(0.000495188 0.0438581 0.00176777)
(0.000221049 0.0283599 0.00101463)
(0.000120023 0.0158522 0.000598833)
(8.20131e-05 0.00508954 0.00041995)
(0.00232564 0.0621174 0.00435431)
(0.000583986 0.0439863 0.00249504)
(0.000210792 0.0286382 0.00139653)
(0.000103612 0.0160139 0.000817795)
(6.85342e-05 0.00513964 0.00057222)
(0.00128738 0.0668515 0.00364216)
(0.000278846 0.0446057 0.00205965)
(9.24141e-05 0.0287523 0.00115101)
(4.38635e-05 0.0160422 0.000674192)
(2.86996e-05 0.00514603 0.000471935)
(0.000915404 0.0581533 -0.000994536)
(0.000353803 0.0413685 9.49116e-05)
(0.000167583 0.0271882 0.000145867)
(9.17654e-05 0.0153099 9.96402e-05)
(6.26301e-05 0.00493106 7.21368e-05)
(0.000665413 0.0610897 -0.000547203)
(0.000281212 0.0416022 2.57344e-05)
(0.000139313 0.0271941 5.49653e-05)
(7.74798e-05 0.0152998 3.79724e-05)
(5.31138e-05 0.00492719 2.75127e-05)
(0.00223916 0.0588279 -0.00046476)
(0.000882721 0.0416476 0.000345932)
(0.000427053 0.0273128 0.000275419)
(0.000236301 0.015365 0.000173097)
(0.000161963 0.00494688 0.00012293)
(0.00172044 0.0616284 -0.000355647)
(0.000737566 0.0418132 0.000116383)
(0.0003709 0.0272895 0.000101342)
(0.000207775 0.0153423 6.41368e-05)
(0.000142905 0.00493937 4.55539e-05)
(0.00314112 0.0602158 0.000191311)
(0.00109327 0.0421152 0.000628194)
(0.000508358 0.0275086 0.000415641)
(0.000278085 0.0154512 0.000252019)
(0.000190074 0.00497159 0.00017739)
(0.00233539 0.0628187 0.000374985)
(0.00101407 0.0421983 0.000418559)
(0.000516128 0.0274592 0.000252031)
(0.000290753 0.0154184 0.000148802)
(0.000200511 0.00496129 0.000103949)
(0.00279083 0.0624327 0.00164956)
(0.00120905 0.0426478 0.0012291)
(0.000618838 0.0277058 0.000712426)
(0.000349762 0.0155354 0.000417831)
(0.000241405 0.00499558 0.000291267)
(0.00158571 0.0642452 0.00112153)
(0.000765476 0.0426123 0.000786947)
(0.000402175 0.0276519 0.000445546)
(0.000228858 0.0155065 0.000259588)
(0.000158331 0.00498683 0.000180536)
(0.00143286 0.0645255 0.00312548)
(0.000655352 0.0429215 0.00165046)
(0.000341728 0.0278168 0.000894429)
(0.000194019 0.0155847 0.000516005)
(0.000134084 0.00500975 0.000358491)
(-0.0114574 0.42274 0.0740591)
(-0.0171934 0.652625 0.168804)
(-0.0243726 0.441226 0.0755906)
(-0.0416003 0.662565 0.167558)
(-0.0220394 0.467828 0.0835077)
(-0.0510871 0.674463 0.166743)
(0.00183274 0.484094 0.099203)
(-0.038861 0.679723 0.173271)
(0.0289619 0.460856 0.102858)
(0.00138163 0.648911 0.17788)
(-0.0252506 0.422303 0.0426713)
(-0.0465347 0.476584 0.0637276)
(0.0180835 0.42434 0.0685796)
(0.0144836 0.502442 0.106732)
(-0.0451236 0.423823 0.023337)
(-0.0734192 0.47102 0.0318198)
(-0.0590867 0.430808 0.00860834)
(-0.08518 0.476076 0.010896)
(-0.0269958 0.375711 0.381975)
(-0.00631247 0.0644208 0.0914217)
(-0.0014285 0.013787 0.0210029)
(-0.000316839 0.00309748 0.00470392)
(-7.98266e-05 0.000549238 0.00117245)
(-0.00842023 0.418296 0.104372)
(-0.00398004 0.119184 0.0281443)
(-0.00055518 0.0289764 0.00749801)
(-0.000149538 0.00658421 0.00170926)
(-6.64512e-05 0.001167 0.000372961)
(-0.0828826 0.378346 0.376766)
(-0.0192834 0.0637347 0.0894688)
(-0.00437865 0.0135462 0.020539)
(-0.000966349 0.00303258 0.00456241)
(-0.000243798 0.00053636 0.00114573)
(-0.0198825 0.420491 0.1063)
(-0.00548147 0.118347 0.031369)
(-0.00135021 0.0286732 0.00774575)
(-0.000285697 0.00648593 0.00180517)
(-7.7872e-05 0.00113992 0.000449732)
(-0.138867 0.379702 0.358464)
(-0.0323698 0.0631255 0.0845691)
(-0.00737005 0.0133106 0.0193487)
(-0.00163204 0.00296812 0.00429376)
(-0.000410876 0.000523985 0.00107981)
(-0.0318323 0.420972 0.103181)
(-0.00935937 0.117302 0.030309)
(-0.00229285 0.0282813 0.00746276)
(-0.000536178 0.00637607 0.00173041)
(-0.000135635 0.00111923 0.000432673)
(-0.185471 0.373629 0.326693)
(-0.0433557 0.0608147 0.0764299)
(-0.00991268 0.0127151 0.0174411)
(-0.00220206 0.00282937 0.00386851)
(-0.000555127 0.000499304 0.000973475)
(-0.036949 0.413379 0.100043)
(-0.011767 0.114181 0.0287683)
(-0.00297545 0.0274414 0.00699282)
(-0.000703322 0.00617861 0.00160731)
(-0.000177423 0.00108373 0.000399821)
(-0.230378 0.35168 0.272001)
(-0.0543849 0.0557996 0.0633365)
(-0.0125222 0.0116459 0.0144662)
(-0.00279619 0.00260034 0.00321409)
(-0.000707975 0.000460052 0.000810075)
(-0.0407614 0.388997 0.0941323)
(-0.014311 0.107675 0.026347)
(-0.00372431 0.0259703 0.00633663)
(-0.000891402 0.00586571 0.00144774)
(-0.000227476 0.00103059 0.000359166)
(-0.270166 0.309042 0.127413)
(-0.0657255 0.0509901 0.0310354)
(-0.015346 0.0109928 0.00721442)
(-0.00345696 0.00249575 0.0016156)
(-0.000879597 0.000445109 0.000408129)
(-0.0650444 0.31651 0.0458842)
(-0.0201257 0.0920142 0.0130459)
(-0.00500537 0.0227978 0.00311501)
(-0.00115691 0.00523754 0.000699817)
(-0.000291599 0.000929445 0.000173291)
(-0.252638 0.321843 0.190713)
(-0.0612692 0.052255 0.0457985)
(-0.0142427 0.0111325 0.0105614)
(-0.00319473 0.00251128 0.00235294)
(-0.000810152 0.000446365 0.000593253)
(-0.0496252 0.337718 0.0674898)
(-0.0169173 0.0979983 0.0189397)
(-0.00434897 0.0240618 0.00455779)
(-0.00102687 0.00548274 0.00104079)
(-0.000259317 0.000967611 0.000259958)
(-0.277838 0.30378 0.0745766)
(-0.0676665 0.0506005 0.0183089)
(-0.0158277 0.0109582 0.00427653)
(-0.00357122 0.00249376 0.000962568)
(-0.000910155 0.000445198 0.000243696)
(-0.0742685 0.30888 0.0257797)
(-0.022165 0.0892292 0.00761757)
(-0.00542498 0.0221249 0.00181024)
(-0.00123558 0.00509915 0.00040676)
(-0.000310507 0.000907503 0.0001017)
(-0.289096 0.30215 0.0257811)
(-0.0697955 0.0501194 0.00629463)
(-0.0163463 0.0108439 0.00147453)
(-0.00368641 0.0024685 0.000333208)
(-0.000938977 0.000440296 8.44593e-05)
(-0.0772941 0.308589 0.0103508)
(-0.0231165 0.0884764 0.00279488)
(-0.00570548 0.0218774 0.000619566)
(-0.00120753 0.00505329 0.000172746)
(-0.000320918 0.000897866 3.42404e-05)
(-0.0208497 1.37224 -0.000527377)
(-0.286132 1.95164 0.0168481)
(-0.261126 1.90579 0.186762)
(-0.0928595 1.33039 -0.0371655)
(0.0674966 0.780567 0.0306934)
(0.114593 0.822122 0.0328922)
(0.318668 1.15151 0.0959542)
(0.466028 1.20457 0.122967)
(0.071822 0.903755 0.0777407)
(0.342204 1.01447 0.145716)
(-0.0694206 1.43948 0.123113)
(0.103452 1.96801 0.189821)
(0.100925 1.82127 0.148951)
(0.201292 2.41649 0.184791)
(0.382036 1.18818 0.0772135)
(0.541333 1.35596 0.10391)
(0.577482 0.930996 0.0820062)
(0.725511 0.995774 0.0972957)
(0.235916 0.504923 0.0426158)
(0.305657 0.554077 0.0443114)
(-0.7995 0.194676 0.0927309)
(-0.575522 0.126917 0.0666085)
(-0.18074 0.0300347 0.0236469)