/*--------------------------------*- C++ -*----------------------------------*\
| =========                 |                                                 |
| \\      /  F ield         | OpenFOAM: The Open Source CFD Toolbox           |
|  \\    /   O peration     | Version:  2306                                  |
|   \\  /    A nd           | Website:  www.openfoam.com                      |
|    \\/     M anipulation  |                                                 |
\*---------------------------------------------------------------------------*/
FoamFile
{
    version     2.0;
    format      ascii;
    arch        "LSB;label=32;scalar=64";
    class       volVectorField;
    location    "1.9";
    object      flux;
}
// * * * * * * * * * * * * * * * * * * * * * * * * * * * * * * * * * * * * * //

dimensions      [0 1 -1 1 0 0 0];

internalField   nonuniform List<vector> 
5712
(
(-0.269566 0.474775 0.295345)
(-0.344554 0.273808 0.970085)
(-0.639702 0.769164 0.234553)
(-0.934507 0.504594 0.994638)
(-0.953396 0.839688 0.176022)
(-1.64548 0.621952 1.02831)
(-0.732348 1.31705 0.277567)
(-1.86559 1.63451 1.58394)
(-0.596338 1.73217 0.340994)
(-1.31033 2.12169 2.17754)
(-0.89187 1.12077 0.338605)
(-1.35684 0.974443 1.58675)
(-0.800124 0.711791 0.326769)
(-1.04957 0.564645 1.31734)
(-0.351935 0.357487 0.339642)
(-0.402523 0.241894 1.17729)
(-0.602072 0.795222 0.20556)
(-0.689841 0.81135 0.127432)
(-0.77752 0.685871 0.549543)
(-0.770979 0.804587 0.326461)
(-0.611365 1.07433 0.201261)
(-0.754986 0.956836 0.108602)
(-0.900941 1.24159 0.600909)
(-0.807946 1.00244 0.298405)
(-0.219535 0.334636 0.224978)
(-0.165323 0.240404 0.163408)
(-0.27299 0.188239 0.721208)
(-0.183859 0.139994 0.508278)
(-0.509009 0.39991 0.170185)
(-0.407685 0.325391 0.12284)
(-0.868653 0.243047 0.709308)
(-0.629792 0.196746 0.51609)
(-0.672735 0.729827 0.399227)
(-0.699538 0.756189 0.16914)
(-0.74755 0.744186 0.345075)
(-0.714373 0.625779 0.153966)
(-0.26338 0.577799 0.159037)
(-0.205672 0.453031 0.372806)
(-1.59109 0.454579 1.37676)
(-2.12987 0.516652 0.372912)
(-1.02803 0.732245 0.49328)
(-1.26197 0.729153 0.166525)
(-2.13822 1.53863 1.77226)
(-2.77465 1.59104 0.480852)
(-1.10586 1.08834 0.461348)
(-1.26608 1.1217 0.159023)
(-1.18033 0.62319 0.984059)
(-1.66717 0.525464 0.305226)
(-1.03041 0.677527 0.505235)
(-1.36534 0.482849 0.176097)
(-0.603503 0.315116 0.856317)
(-0.972246 0.323918 0.272134)
(-0.116203 0.259153 0.245252)
(-0.0392089 0.364864 0.121599)
(-0.122292 0.135656 0.35844)
(-0.0441175 0.164135 0.139842)
(-0.350748 0.355089 0.265478)
(-0.141708 0.488901 0.143458)
(-0.480625 0.211677 0.349406)
(-0.176988 0.247659 0.134287)
(-0.342677 0.392771 0.336087)
(-0.131351 0.663294 0.191688)
(-0.363489 0.272467 0.301201)
(-0.116638 0.44756 0.131099)
(-0.618993 0.103752 0.443992)
(-0.197056 0.265853 0.159742)
(-0.798387 0.0863602 0.15265)
(-0.269519 0.198251 0.0533518)
(-0.973897 0.714466 0.503372)
(-0.484193 0.883075 0.349827)
(-0.891622 0.738661 0.310809)
(-0.52834 0.880245 0.227683)
(-0.911807 0.873538 0.559802)
(-0.589799 0.881486 0.460924)
(-0.802077 0.891095 0.305686)
(-0.602362 0.871089 0.264558)
(-0.702258 0.629474 0.29553)
(-0.417311 0.853632 0.200492)
(-0.702621 0.645801 0.418059)
(-0.35868 0.842586 0.280889)
(-0.920034 0.728193 0.204419)
(-0.58751 0.874688 0.150493)
(-0.922099 0.72826 0.103361)
(-0.592761 0.872901 0.0849299)
(-0.847331 0.89932 0.196712)
(-0.63725 0.860467 0.169939)
(-0.857574 0.89668 0.101186)
(-0.639867 0.85253 0.0977444)
(-0.758344 0.582002 0.196762)
(-0.481373 0.857477 0.129491)
(-0.785377 0.562065 0.100418)
(-0.493058 0.860671 0.0646346)
(-0.718078 0.712872 0.264778)
(-0.311562 0.838929 0.144135)
(-0.332296 0.900106 0.19927)
(-0.405537 1.25903 0.239736)
(-0.720976 0.755058 0.363495)
(-0.340854 0.969603 0.258765)
(-0.290453 0.892114 0.289478)
(-0.411768 1.36853 0.410915)
(-0.760287 0.675886 0.174755)
(-0.309866 0.738054 0.0829171)
(-0.376236 0.903573 0.117313)
(-0.408056 1.20989 0.137066)
(-0.797921 0.668756 0.0864862)
(-0.317234 0.690429 0.0360114)
(-0.409013 0.913274 0.0505411)
(-0.426027 1.20049 0.0507706)
(-0.150548 0.215493 0.325054)
(-0.16453 0.282529 0.582505)
(-0.0506785 0.550131 0.220152)
(-0.0996729 0.962546 0.649901)
(-0.440276 0.266949 0.380518)
(-0.465583 0.304118 0.570055)
(-0.170645 0.707794 0.27052)
(-0.304112 1.09369 0.679921)
(-0.563901 0.331945 0.431577)
(-0.625928 0.335505 0.515719)
(-0.273455 0.896477 0.347843)
(-0.465764 1.21925 0.662772)
(-0.491779 0.984368 0.503812)
(-0.0399417 1.05325 0.596789)
(-0.547939 0.836605 0.382649)
(-0.679174 0.811501 0.369483)
(-0.370508 1.18218 0.403369)
(-0.0262293 1.05947 0.59671)
(-0.29621 1.00357 0.555796)
(-0.49439 0.853541 0.549772)
(-0.79818 0.742553 0.56574)
(-0.559454 1.3525 0.814459)
(-0.401248 0.966021 0.485226)
(-0.488583 0.956256 0.376936)
(-0.428891 0.855157 0.328655)
(-0.371746 0.854581 0.368592)
(-0.583951 1.5438 0.5753)
(-0.144137 0.083058 0.674981)
(-0.118436 0.0997992 0.603165)
(-0.0825021 0.178191 0.78231)
(-0.0817519 0.407956 0.752897)
(-0.405749 0.11782 0.618111)
(-0.340894 0.133599 0.573201)
(-0.245507 0.245757 0.77231)
(-0.233265 0.456541 0.736943)
(-0.505888 0.175416 0.534869)
(-0.425917 0.148621 0.522099)
(-0.320594 0.333804 0.723967)
(-0.287147 0.522758 0.709836)
(-0.233056 1.04713 0.436269)
(-0.297544 1.03157 0.343144)
(-0.482639 0.946824 0.410209)
(-0.501098 0.928521 0.358589)
(-0.567345 0.815279 0.449696)
(-0.515893 0.74395 0.403985)
(-0.640187 0.619066 0.485007)
(-0.555944 0.546345 0.467084)
(-0.436668 0.438707 0.665407)
(-0.367622 0.612077 0.68283)
(-0.364662 0.954367 0.407476)
(-0.381953 0.919261 0.354329)
(-0.482112 0.964485 0.392084)
(-0.377462 0.946736 0.379396)
(-0.440425 0.841233 0.406385)
(-0.317777 0.786738 0.433498)
(-0.382446 0.698929 0.458108)
(-0.261335 0.625643 0.517039)
(-0.448077 0.467366 0.596747)
(-0.292708 0.617331 0.693196)
(-0.412089 0.956636 0.337668)
(-0.18871 1.07648 0.265367)
(-0.354639 0.954254 0.231331)
(-0.382342 1.10353 0.293676)
(-0.505288 0.922589 0.453436)
(-0.65676 0.954201 0.550838)
(-0.556218 0.900993 0.313924)
(-0.80823 0.961549 0.495531)
(-0.282817 0.872299 0.197129)
(-0.31222 0.887102 0.258328)
(-0.365495 0.865091 0.294314)
(-0.112526 0.861136 0.243072)
(-0.316369 0.946887 0.056651)
(-0.608053 1.10839 0.1947)
(-0.300308 0.942696 0.0289556)
(-0.652628 1.10752 0.0697861)
(-0.550865 0.874849 0.160209)
(-0.998194 0.973695 0.33261)
(-0.560543 0.867762 0.0587983)
(-1.06018 0.971601 0.115029)
(-0.239964 0.875664 0.0280282)
(-0.523657 0.885095 0.165855)
(-0.218385 0.875515 0.0152497)
(-0.558752 0.884613 0.0580444)
(-0.332112 0.735915 0.194259)
(-0.249256 0.69955 0.197206)
(-0.463295 0.475049 0.220862)
(-0.182052 0.528925 0.13813)
(-0.340516 0.730973 0.307938)
(-0.0631851 0.681277 0.24712)
(-0.403247 0.467945 0.362074)
(-0.0265642 0.531323 0.251034)
(-0.319569 0.746092 0.0464911)
(-0.375327 0.697389 0.108057)
(-0.48556 0.485355 0.10976)
(-0.223725 0.530904 0.0630484)
(-0.264691 0.749105 0.0608801)
(-0.443156 0.690314 0.0787196)
(-0.430018 0.500427 0.0858671)
(-0.293954 0.531161 0.0649605)
(-0.0937472 0.0673728 0.481023)
(-0.0823587 0.0453681 0.292528)
(-0.0731755 0.03139 0.0922361)
(-0.067423 0.0389402 0.54412)
(-0.0616621 0.0266212 0.312706)
(-0.0548765 0.0248087 0.102446)
(-0.277064 0.0937875 0.46151)
(-0.225868 0.0556611 0.289507)
(-0.194444 0.0419955 0.0978614)
(-0.178701 0.0766697 0.535477)
(-0.142693 0.0614032 0.313083)
(-0.12309 0.0527635 0.102389)
(-0.33793 0.1086 0.424589)
(-0.289689 0.0896702 0.265965)
(-0.266797 0.089656 0.0875035)
(-0.214813 0.134713 0.522295)
(-0.173821 0.109716 0.314516)
(-0.163623 0.098299 0.105123)
(-0.260215 0.981685 0.226018)
(-0.228471 0.882357 0.123658)
(-0.222224 0.813411 0.0338854)
(-0.435899 0.905411 0.291525)
(-0.32844 0.83575 0.192267)
(-0.27531 0.780664 0.0666917)
(-0.412838 0.650935 0.349081)
(-0.302334 0.601506 0.240684)
(-0.243712 0.574304 0.0829794)
(-0.432933 0.443925 0.404502)
(-0.33913 0.382784 0.262225)
(-0.293681 0.356746 0.0871247)
(-0.272021 0.205494 0.517107)
(-0.177718 0.150637 0.322971)
(-0.137791 0.127203 0.11288)
(-0.627063 0.888807 0.267397)
(-0.538674 0.818742 0.151675)
(-0.463756 0.759977 0.0485723)
(-0.404937 0.914891 0.275887)
(-0.334353 0.829382 0.198804)
(-0.275401 0.763608 0.0750735)
(-0.361886 0.679619 0.328698)
(-0.278695 0.580468 0.242705)
(-0.22026 0.524383 0.0892524)
(-0.30569 0.444618 0.410121)
(-0.218671 0.353446 0.287972)
(-0.166071 0.316173 0.103114)
(-0.317339 0.218493 0.523276)
(-0.175463 0.149844 0.327262)
(-0.0976856 0.119783 0.116256)
(-0.417862 1.08868 0.0119819)
(-0.565347 1.06436 0.0808729)
(-0.331027 1.18666 0.114459)
(-0.427025 1.06396 0.165082)
(-0.451571 1.22125 0.0883841)
(-0.662544 1.06406 0.101269)
(-0.403894 1.47563 0.221793)
(-0.586967 1.12148 0.210175)
(-0.00118501 0.843205 0.0241418)
(-0.0288068 0.855374 0.0411622)
(0.0206061 0.833036 0.0257733)
(-0.00397192 0.772777 0.0428684)
(-0.118424 0.946085 0.01949)
(-0.1335 0.890438 0.0565375)
(-0.0491137 0.929549 0.0347912)
(-0.0262357 0.794012 0.0741398)
(-0.0273968 0.920398 0.129036)
(-0.095672 0.912898 0.0630645)
(-0.377115 0.847597 0.163197)
(-0.549952 0.905705 0.0943788)
(-0.266175 1.12801 0.0866559)
(-0.147104 1.0141 0.151321)
(-0.398887 1.12125 0.136611)
(-0.396029 1.13882 0.0363705)
(-0.616541 1.21851 0.245743)
(-0.679239 1.26064 0.0591735)
(0.0247479 0.933712 -0.0785136)
(0.167099 0.969212 0.0271484)
(-0.30397 0.835933 0.0706504)
(-0.286395 0.811618 0.0520588)
(-0.289219 1.01629 0.0485502)
(-0.223005 1.04286 0.0441042)
(-0.0407712 0.660779 0.391163)
(-0.0215627 0.356762 0.177803)
(-0.0267428 0.618219 0.10678)
(-0.0109158 0.394872 0.0658256)
(-0.0785609 0.670613 0.397292)
(-0.00698574 0.360016 0.184751)
(0.0146288 0.616637 0.134602)
(0.0346952 0.392463 0.0834157)
(-0.369294 0.661697 0.392166)
(-0.0943777 0.361929 0.198722)
(-0.250433 0.615127 0.195055)
(-0.0645203 0.409 0.136137)
(-0.363045 0.598536 0.139817)
(-0.110324 0.427879 0.100209)
(-0.439605 0.605905 0.0679529)
(-0.141019 0.424397 0.0650393)
(-0.354613 0.850591 0.507071)
(-0.477851 0.726672 0.450423)
(-0.327737 0.846562 0.238534)
(-0.465894 0.726095 0.247374)
(-0.572262 0.939472 0.547472)
(-0.604528 0.847932 0.513557)
(-0.545968 0.949766 0.269983)
(-0.572176 0.840061 0.272034)
(-0.225283 0.82897 0.211254)
(-0.375219 0.606295 0.217273)
(-0.260313 0.863903 0.434463)
(-0.372892 0.597984 0.362601)
(-0.347789 0.865846 0.141955)
(-0.448679 0.722907 0.148666)
(-0.383661 0.877033 0.0787404)
(-0.453148 0.714826 0.0899509)
(-0.568845 0.97478 0.166019)
(-0.561813 0.833479 0.16499)
(-0.595579 0.975718 0.0905696)
(-0.563998 0.822933 0.0972709)
(-0.227437 0.821441 0.12322)
(-0.362978 0.608319 0.13311)
(-0.247519 0.819313 0.0684754)
(-0.369553 0.604644 0.0850012)
(0.00780811 0.544088 0.187719)
(-0.0512251 0.363533 0.130629)
(-0.293759 0.480395 0.187078)
(-0.181681 0.308993 0.131951)
(0.0302734 0.506721 0.29268)
(-0.0347295 0.325814 0.171986)
(-0.272138 0.461489 0.278732)
(-0.160371 0.288828 0.182541)
(-0.0106734 0.557703 0.112748)
(-0.0617819 0.386236 0.0945907)
(-0.30032 0.488277 0.118333)
(-0.198168 0.318404 0.0852385)
(-0.0287884 0.558572 0.0624603)
(-0.0726319 0.400118 0.0590479)
(-0.301753 0.487104 0.0751776)
(-0.205094 0.320717 0.0500009)
(0.0283088 0.103703 0.462108)
(0.0325313 0.0541632 0.318891)
(-0.00632922 0.190098 0.23158)
(-0.000119378 0.10196 0.233517)
(0.118482 0.110784 0.460254)
(0.119665 0.0666745 0.32727)
(0.00976483 0.202656 0.23277)
(0.0166472 0.122471 0.232439)
(0.0262526 0.136552 0.478361)
(0.0816728 0.101016 0.341705)
(-0.0648715 0.224645 0.236103)
(-0.0381941 0.160952 0.226285)
(0.410827 0.52692 0.556248)
(0.385265 0.815378 0.602366)
(0.223723 0.380269 0.506018)
(0.172793 0.365022 0.33792)
(0.019765 0.260138 0.191052)
(0.421797 0.798149 0.570741)
(0.432121 0.556374 0.526347)
(0.173141 0.326985 0.487625)
(0.256322 0.328687 0.402077)
(0.0358996 0.21426 0.258344)
(-0.412631 0.830572 0.53501)
(-0.322402 0.654262 0.482085)
(-0.284669 0.520628 0.38452)
(-0.265615 0.405714 0.295511)
(-0.15921 0.253386 0.183852)
(0.0327127 0.0289735 0.268193)
(0.0300006 0.0219339 0.236622)
(0.00195814 0.0581232 0.249247)
(-0.00184155 0.0427672 0.282884)
(0.10353 0.0413101 0.277741)
(0.100599 0.0286186 0.233579)
(0.00612791 0.0826482 0.252322)
(-0.00312997 0.0658104 0.279947)
(0.104488 0.0720523 0.291589)
(0.124849 0.0560542 0.234183)
(-0.0249123 0.120785 0.255813)
(-0.0367134 0.0984352 0.277393)
(0.205352 0.809734 0.430535)
(0.0917124 0.782894 0.304174)
(0.325524 0.549372 0.399937)
(0.20245 0.526175 0.278134)
(0.145833 0.357717 0.313883)
(0.109851 0.36035 0.253195)
(0.165311 0.30139 0.292741)
(0.142477 0.276965 0.24983)
(-0.0143734 0.183286 0.238047)
(-0.0506688 0.150524 0.275888)
(-0.151521 0.759935 0.357851)
(-0.0955361 0.690629 0.310701)
(-0.0414839 0.589602 0.315277)
(0.0404393 0.517521 0.275102)
(-0.0388977 0.459598 0.268343)
(0.0309715 0.408231 0.243096)
(-0.0655037 0.350063 0.236052)
(-0.0125696 0.316263 0.233954)
(-0.0795194 0.2239 0.187224)
(-0.0904781 0.221386 0.262339)
(-0.208149 0.60447 0.28185)
(-0.189818 0.489305 0.190615)
(-0.396462 0.608221 0.18729)
(-0.238704 0.477647 0.112104)
(-0.32536 0.726249 0.369566)
(-0.326608 0.602868 0.284897)
(-0.493879 0.724741 0.256794)
(-0.399565 0.594573 0.206865)
(-0.31074 0.509757 0.152453)
(-0.181901 0.413723 0.0914485)
(-0.154223 0.494572 0.221239)
(-0.152726 0.415198 0.163232)
(-0.467618 0.608427 0.18904)
(-0.205866 0.470291 0.0893769)
(-0.514385 0.604717 0.0688742)
(-0.230897 0.469573 0.0395873)
(-0.550903 0.722028 0.200731)
(-0.407807 0.605931 0.145348)
(-0.587918 0.715153 0.0697554)
(-0.437396 0.604182 0.0578478)
(-0.377528 0.518938 0.163182)
(-0.147734 0.407287 0.0726714)
(-0.423033 0.51807 0.063972)
(-0.171448 0.412689 0.033571)
(-0.242797 0.397643 0.126282)
(-0.191012 0.336873 0.1158)
(-0.18446 0.264046 0.110433)
(-0.273097 0.278092 0.161492)
(-0.156125 0.383209 0.175824)
(-0.175295 0.329601 0.165666)
(-0.157273 0.251921 0.140636)
(-0.253141 0.263625 0.206453)
(-0.280682 0.414518 0.128336)
(-0.188471 0.343471 0.0827644)
(-0.208643 0.270766 0.0803517)
(-0.313714 0.294348 0.109903)
(-0.342099 0.424355 0.0385392)
(-0.204835 0.343446 0.018509)
(-0.262923 0.281392 0.00799033)
(-0.323867 0.298611 0.0202096)
(0.0301161 0.0709439 0.163243)
(0.0318837 0.0624186 0.068137)
(0.0357209 0.0517049 0.020127)
(0.00129037 0.306201 0.187184)
(0.0112034 0.16408 0.0486004)
(0.0125161 0.134219 0.012954)
(0.109549 0.0689742 0.165995)
(0.115359 0.0680168 0.0739132)
(0.114927 0.0604196 0.0227098)
(0.00933587 0.332553 0.187334)
(0.0320732 0.194398 0.0507137)
(0.0320869 0.164883 0.0141901)
(0.139026 0.0947664 0.156427)
(0.153677 0.106229 0.0738957)
(0.15709 0.108913 0.0191591)
(-0.0212302 0.368253 0.18497)
(0.0313187 0.243952 0.0518741)
(0.0420685 0.217367 0.0121978)
(0.0483021 0.735293 0.188345)
(0.0410309 0.684863 0.0959692)
(0.028922 0.64875 0.0217398)
(0.147157 0.503984 0.168696)
(0.14968 0.486942 0.0815334)
(0.139154 0.476065 0.0193522)
(0.120325 0.368342 0.164105)
(0.135016 0.362613 0.0786)
(0.132417 0.361647 0.0212998)
(0.149053 0.316382 0.161555)
(0.158827 0.305125 0.0755951)
(0.154434 0.297212 0.0161078)
(-0.0499703 0.420096 0.185146)
(0.0141856 0.301936 0.0512273)
(0.0188956 0.272814 0.0077265)
(-0.139022 0.627504 0.237706)
(-0.0794542 0.575869 0.119968)
(-0.0425352 0.541139 0.0323309)
(0.0386232 0.468236 0.212522)
(0.0819409 0.433935 0.10558)
(0.105035 0.414365 0.0289435)
(0.0378569 0.390132 0.192056)
(0.092855 0.360668 0.0947584)
(0.116753 0.343914 0.0275598)
(0.0174648 0.375531 0.180803)
(0.0767285 0.332263 0.0773555)
(0.0937113 0.307093 0.0190752)
(-0.0872925 0.511323 0.200914)
(0.0197036 0.340945 0.0481396)
(0.0322981 0.306029 0.0118033)
(0.00120711 0.19728 0.0689451)
(0.0015376 0.124196 0.0246353)
(0.00189202 0.0875973 0.005071)
(0.00283462 0.0720431 -0.00689697)
(0.0105617 0.222255 0.0287533)
(0.00587373 0.135028 0.010829)
(0.00483052 0.0924594 0.00300453)
(0.00459386 0.073801 -0.00131242)
(0.000688275 0.198266 0.0730427)
(0.00301709 0.124049 0.0269907)
(0.00688142 0.0877855 0.0071147)
(0.0104246 0.0725643 -0.00411396)
(0.0172448 0.22712 0.0365408)
(0.0107963 0.13782 0.0150096)
(0.012071 0.0943353 0.00724898)
(0.0126827 0.0747533 0.00335059)
(-0.00827584 0.197679 0.0783977)
(0.00119725 0.122676 0.0299901)
(0.00988994 0.0880149 0.0106883)
(0.0186897 0.0724041 0.000268599)
(0.00662475 0.231718 0.0624667)
(0.00878406 0.139549 0.028749)
(0.0110783 0.096487 0.0108968)
(0.012396 0.0749792 0.00235155)
(0.00157537 0.249545 0.0475028)
(0.00524675 0.147868 0.0263252)
(0.00519419 0.0985492 0.00877937)
(0.00502835 0.0776694 -0.000786152)
(-0.00824643 0.257072 0.0442235)
(-0.000293269 0.153664 0.0284881)
(0.0044933 0.101648 0.0160705)
(0.00750507 0.0805175 0.00926208)
(-0.0363156 0.210838 0.0648306)
(-0.00750085 0.13064 0.0284769)
(0.00329189 0.0915576 0.00846945)
(0.0109451 0.0733934 -0.00652121)
(-0.0567587 0.171735 0.0552955)
(-0.0132295 0.114186 0.0239835)
(-0.000429756 0.0838034 0.0103837)
(0.0190523 0.0704866 -0.00636967)
(-0.0249183 0.184666 0.0765909)
(-0.00306111 0.118133 0.029513)
(0.00658461 0.0853814 0.00959474)
(0.0165225 0.0684661 -0.00437247)
(-0.0464997 0.157871 0.0691189)
(-0.0100165 0.107523 0.0267703)
(-0.00113951 0.0804245 0.0106871)
(0.0165604 0.0676918 -0.0103887)
(-0.0388572 0.22841 0.0519248)
(-0.00901243 0.140103 0.0263597)
(0.00443576 0.0959086 0.0102002)
(0.0140864 0.0766048 -0.00218814)
(-0.0637684 0.180044 0.0423962)
(-0.0157769 0.119066 0.021088)
(-0.000548636 0.0859623 0.0110902)
(0.0224693 0.0726844 7.15685e-05)
(-0.0434859 0.238345 0.0382116)
(-0.0119468 0.146552 0.0230584)
(0.00413566 0.0990385 0.0133486)
(0.0169052 0.0789836 0.00798292)
(-0.0687894 0.1837 0.0291443)
(-0.018082 0.122568 0.017702)
(-0.00137527 0.087799 0.0115961)
(0.0234885 0.0740185 0.00665436)
(0.00047913 0.148306 0.0874181)
(0.000918216 0.106305 0.0296619)
(0.00166908 0.0797003 0.0051389)
(0.0035878 0.0683589 -0.0137903)
(0.0016443 0.0950302 0.0859876)
(0.00127034 0.0848524 0.0272485)
(0.000968016 0.0700587 0.00747864)
(0.00327065 0.0642699 -0.0187051)
(0.00316896 0.148696 0.0873617)
(0.00314051 0.10576 0.0301018)
(0.00525643 0.0795722 0.00589698)
(0.00976273 0.0682041 -0.0131429)
(0.00689166 0.0993558 0.0833696)
(0.00428787 0.0860309 0.0265248)
(0.00307028 0.0704825 0.00776805)
(0.00887184 0.0646291 -0.0181527)
(-0.0150797 0.152291 0.0857361)
(-0.00181848 0.105655 0.0302182)
(0.00561961 0.0799955 0.00888109)
(0.0165761 0.0685804 -0.00912245)
(-0.00639912 0.112603 0.0779457)
(0.00125721 0.0899331 0.0251294)
(0.00396793 0.0720463 0.00946922)
(0.0156394 0.0662131 -0.0146979)
(-0.00232484 0.150312 0.0752706)
(0.00474995 0.102946 0.0279576)
(0.00849917 0.0785028 0.0120998)
(0.0166735 0.069925 -0.000625348)
(-5.6477e-05 0.123994 0.085542)
(0.00385155 0.0926445 0.0281555)
(0.00333925 0.0740521 0.0132251)
(0.0157692 0.0658867 -0.0171078)
(-0.0397699 0.139332 0.0670974)
(-0.00759987 0.0997698 0.0249737)
(0.00040463 0.0766028 0.0120505)
(0.0219471 0.0666859 -0.00392989)
(0.00343644 0.0410203 0.0676743)
(0.00177355 0.0674097 0.0191614)
(0.00124061 0.0555969 0.00665308)
(0.00251377 0.0168233 -0.0125095)
(0.00638467 -0.0196922 0.0268329)
(0.00257932 0.0576849 0.00695698)
(0.00133305 0.0497177 0.00179053)
(0.00118634 0.0177764 -0.00253197)
(0.00712519 0.0506457 0.0701284)
(0.00422448 0.0705924 0.0205096)
(0.00266404 0.0568778 0.00736417)
(0.00642481 0.0177579 -0.0119012)
(0.016326 -0.00774258 0.0280535)
(0.00686145 0.0612319 0.00754417)
(0.00333012 0.0508242 0.00227597)
(0.00303398 0.0181577 -0.00200991)
(0.00449094 0.0687311 0.0717322)
(0.00472274 0.076231 0.0220416)
(0.00366629 0.0588116 0.00901693)
(0.0105496 0.0177005 -0.0103619)
(0.02075 0.012565 0.0287279)
(0.00965966 0.0672251 0.00822268)
(0.00502335 0.0524437 0.00290136)
(0.00477649 0.0183662 -0.00138158)
(-0.00294951 0.0908947 0.0648442)
(0.00433108 0.0829425 0.0208162)
(0.0046216 0.0616676 0.0103345)
(0.0146984 0.0192221 -0.00805657)
(0.0165408 0.0342473 0.028018)
(0.0104581 0.0738795 0.00851515)
(0.00595907 0.0547849 0.00396593)
(0.00605678 0.0191571 -0.000257292)
(-0.0203078 0.105568 0.0595229)
(0.000678613 0.0890886 0.0207259)
(0.00205217 0.0652115 0.0111011)
(0.0139434 0.0223946 -0.00451906)
(0.00528833 0.0401793 0.0252321)
(0.00902685 0.0789259 0.00900467)
(0.00541546 0.056963 0.00537009)
(0.00615381 0.0198483 0.00125532)
(-0.0461715 0.112679 0.0413949)
(-0.00465245 0.0958533 0.0166027)
(0.00139174 0.0667943 0.00801192)
(0.0160384 0.0212995 -0.00142644)
(-0.0146172 0.027871 0.0237978)
(0.00224804 0.0842939 0.0116683)
(0.0033248 0.0610166 0.0069393)
(0.00564084 0.0210657 0.00358988)
(-0.0354014 0.109882 0.0478548)
(-0.00125818 0.0928571 0.0169442)
(0.00182829 0.0655924 0.00839718)
(0.0149188 0.0213111 -0.00334459)
(-0.00829898 0.0262789 0.0240526)
(0.00528785 0.081801 0.0102183)
(0.0045359 0.0589646 0.00618984)
(0.00616017 0.020344 0.0024543)
(-0.0560617 0.113558 0.033326)
(-0.00877985 0.0979819 0.015962)
(7.24993e-05 0.0677354 0.00862406)
(0.0174243 0.0198614 0.00128748)
(-0.0202507 0.0255635 0.0212648)
(-0.000714961 0.0864419 0.012169)
(0.00212437 0.0623847 0.00749867)
(0.00526129 0.0211947 0.00469872)
(-0.0634859 0.115986 0.0234907)
(-0.0128413 0.100229 0.0143621)
(-0.00174952 0.0695504 0.00956281)
(0.0171765 0.0202912 0.00577697)
(-0.0253939 0.0297052 0.0176432)
(-0.00387965 0.0887996 0.0119897)
(0.0005517 0.0640548 0.00818292)
(0.00453616 0.0217172 0.00604421)
(0.00124344 0.0642159 -0.000623601)
(0.000534899 0.0479881 0.000245405)
(0.000266365 0.0324539 0.000246787)
(0.000150672 0.0186199 0.000167225)
(0.000105595 0.00605551 0.000123514)
(0.00163409 0.0635186 -9.25846e-05)
(0.000817403 0.0478931 0.000168325)
(0.000436683 0.0324795 0.000139652)
(0.000254409 0.0186456 9.25025e-05)
(0.000179888 0.00606427 6.83338e-05)
(0.00297199 0.0650171 0.000312953)
(0.0012447 0.0483843 0.000723018)
(0.000617984 0.0326439 0.000506944)
(0.000351324 0.0187069 0.000321465)
(0.000248182 0.00608062 0.000233331)
(0.0036927 0.0645195 0.000919215)
(0.00183061 0.0483996 0.000710161)
(0.000980143 0.0327336 0.000439979)
(0.000574368 0.0187646 0.000270816)
(0.000407752 0.0060991 0.000195021)
(0.00394429 0.0665648 0.00132898)
(0.0015598 0.048949 0.00130544)
(0.000764676 0.0328905 0.000838622)
(0.000434365 0.018817 0.00052382)
(0.000307796 0.00611227 0.000379447)
(0.00496186 0.0657761 0.00372145)
(0.00242938 0.0490027 0.00241243)
(0.00130496 0.0330332 0.00143088)
(0.000769684 0.0189058 0.0008734)
(0.000548808 0.00614076 0.000627781)
(0.00259228 0.066753 0.00444371)
(0.00124199 0.0496903 0.00283841)
(0.000664764 0.0334293 0.0016841)
(0.000393063 0.0191039 0.00103095)
(0.000280576 0.00620058 0.000743642)
(0.0018514 0.0683241 0.00647568)
(0.000732003 0.0506785 0.0037551)
(0.000357569 0.0339931 0.00216164)
(0.000205018 0.0193861 0.00131074)
(0.000144768 0.00628587 0.000943914)
(0.00394362 0.0681379 0.0023175)
(0.00159408 0.0496278 0.00190612)
(0.000798312 0.0332463 0.00118453)
(0.000459998 0.0189891 0.000733643)
(0.000325203 0.00616371 0.000528214)
(0.00188432 0.0727261 0.00249687)
(0.000653364 0.0504557 0.00180127)
(0.00030756 0.0334796 0.00109367)
(0.000173085 0.0190749 0.000675634)
(0.000121286 0.00618702 0.000486762)
(0.00415934 0.068468 0.00160705)
(0.00185096 0.0494522 0.00153321)
(0.000970692 0.0330747 0.000970127)
(0.000568508 0.0188934 0.00060617)
(0.000404676 0.00613366 0.000438724)
(0.00178177 0.0726288 0.00299529)
(0.000650066 0.0501566 0.00188146)
(0.000315573 0.0332898 0.0011004)
(0.000179149 0.0189779 0.000674021)
(0.00012542 0.00615722 0.000483848)
(0.00304085 0.0687592 0.00302312)
(0.00104405 0.0502316 0.00227152)
(0.000483482 0.0336008 0.00139482)
(0.000271241 0.0191677 0.000862471)
(0.000190407 0.00621793 0.00062281)
(0.0017878 0.074052 0.00335956)
(0.000584165 0.0510416 0.0021539)
(0.000269628 0.0338023 0.00127872)
(0.000151758 0.0192362 0.000784999)
(0.000106669 0.00623605 0.000565834)
(0.00266273 0.0703225 0.00514389)
(0.000679543 0.0511911 0.00302422)
(0.000252693 0.0341313 0.00174574)
(0.000128665 0.0194311 0.00105962)
(8.67177e-05 0.00629755 0.000762822)
(0.00147232 0.0757121 0.00430201)
(0.000322147 0.0518976 0.00249734)
(0.000109101 0.0342616 0.00143929)
(5.31684e-05 0.0194638 0.000873671)
(3.50975e-05 0.0063051 0.000627949)
(0.00103936 0.0659881 -0.00115156)
(0.000404468 0.0482301 0.000120523)
(0.000193577 0.0324518 0.000182536)
(0.000106989 0.0185994 0.000128426)
(7.42e-05 0.00604784 9.5677e-05)
(0.000751845 0.0693733 -0.000628866)
(0.000320413 0.0485018 3.71754e-05)
(0.000160374 0.0324586 7.16717e-05)
(8.99318e-05 0.0185874 5.14374e-05)
(6.26049e-05 0.00604318 3.88632e-05)
(0.00254007 0.0667429 -0.000535636)
(0.00101326 0.0485427 0.000421237)
(0.000497365 0.0325932 0.000343611)
(0.000278996 0.0186624 0.000223637)
(0.000195331 0.00606574 0.000164081)
(0.00194146 0.0699741 -0.000408876)
(0.000842037 0.0487377 0.000143694)
(0.000428747 0.0325666 0.000127682)
(0.000242701 0.0186358 8.39454e-05)
(0.000169598 0.006057 6.22605e-05)
(0.00356429 0.0682842 0.0002399)
(0.00125075 0.0490663 0.00077124)
(0.000588086 0.0328158 0.000527652)
(0.000324796 0.0187611 0.000334091)
(0.000226595 0.00609383 0.000244551)
(0.00263162 0.0712964 0.000426762)
(0.00115755 0.0491668 0.000497937)
(0.000596309 0.0327586 0.000309097)
(0.000338909 0.0187224 0.000188688)
(0.000238587 0.0060817 0.000137241)
(0.00319707 0.0707782 0.00196911)
(0.00142209 0.0496668 0.00152278)
(0.000748885 0.0330413 0.000923716)
(0.00043616 0.0188581 0.000572503)
(0.000310587 0.0061212 0.000416362)
(0.00178648 0.072881 0.00132161)
(0.000879053 0.0496276 0.000964224)
(0.000469158 0.0329775 0.00057075)
(0.000270381 0.0188228 0.000350478)
(0.000192449 0.00611012 0.000254835)
(0.00165386 0.0731388 0.00365908)
(0.000781132 0.0499757 0.00200335)
(0.000421635 0.0331692 0.00113179)
(0.000248614 0.0189159 0.000684559)
(0.000177228 0.00613794 0.000491139)
(-0.0123415 0.402906 0.0699185)
(-0.0176941 0.620416 0.159627)
(-0.0269706 0.421669 0.0710205)
(-0.0430367 0.631352 0.158241)
(-0.0262031 0.449047 0.0780718)
(-0.0532933 0.645119 0.157246)
(-0.00365046 0.466945 0.0928771)
(-0.0417958 0.652826 0.163493)
(0.0229116 0.446689 0.0966002)
(-0.00289243 0.625777 0.168231)
(-0.0269449 0.412393 0.0395824)
(-0.0474681 0.464848 0.0600337)
(0.013469 0.41332 0.0641443)
(0.0100822 0.48811 0.100837)
(-0.0452398 0.414468 0.0214497)
(-0.0727096 0.460418 0.02976)
(-0.0583409 0.421565 0.00787651)
(-0.0837489 0.46581 0.0101428)
(-0.0258787 0.357286 0.362596)
(-0.0060311 0.0611905 0.0866757)
(-0.00136165 0.0130765 0.0198841)
(-0.000301365 0.00293347 0.00444634)
(-7.57503e-05 0.000519528 0.00110614)
(-0.00838574 0.397488 0.0989456)
(-0.00385824 0.113161 0.0266592)
(-0.000542408 0.0274792 0.00709539)
(-0.000144704 0.00623543 0.0016152)
(-6.35347e-05 0.0011039 0.000351662)
(-0.0794676 0.360468 0.358098)
(-0.0184312 0.0606364 0.0849172)
(-0.00417543 0.012866 0.0194639)
(-0.000919522 0.00287554 0.00431631)
(-0.000231434 0.000507922 0.0010818)
(-0.0199195 0.400383 0.100736)
(-0.00542068 0.112548 0.0297185)
(-0.00132436 0.0272296 0.00733024)
(-0.000279246 0.00615 0.00170598)
(-7.55615e-05 0.00107951 0.000424261)
(-0.133335 0.362992 0.341514)
(-0.0309855 0.0602396 0.0804382)
(-0.0070381 0.0126763 0.0183712)
(-0.00155505 0.00282127 0.00406928)
(-0.000390534 0.000497333 0.0010212)
(-0.0317313 0.402183 0.0977802)
(-0.00921169 0.111873 0.0287267)
(-0.00224184 0.0269253 0.00706616)
(-0.000521353 0.00605963 0.00163627)
(-0.000131288 0.00106216 0.000408401)
(-0.178505 0.358712 0.312255)
(-0.0416013 0.058266 0.0729119)
(-0.00948798 0.0121535 0.0166049)
(-0.00210273 0.0026985 0.00367545)
(-0.000528719 0.000475425 0.000922769)
(-0.0368205 0.396477 0.0949209)
(-0.0115694 0.109282 0.0273021)
(-0.00290658 0.0262104 0.00662934)
(-0.000683492 0.0058896 0.00152163)
(-0.000171707 0.00103139 0.000377789)
(-0.222374 0.33922 0.260969)
(-0.052335 0.0537096 0.0606355)
(-0.0120188 0.0111806 0.0138185)
(-0.00267705 0.00249035 0.00306324)
(-0.000675956 0.000439787 0.000770133)
(-0.0405517 0.374587 0.0895339)
(-0.014039 0.103447 0.0250617)
(-0.00363127 0.0248942 0.00601998)
(-0.000864985 0.00561029 0.00137328)
(-0.000219842 0.000984005 0.000339991)
(-0.262193 0.300503 0.123049)
(-0.0635952 0.0494694 0.0298997)
(-0.0148073 0.0106342 0.00693233)
(-0.00332636 0.00240761 0.00154831)
(-0.000843777 0.000428485 0.000389992)
(-0.0636545 0.307645 0.0436782)
(-0.0196045 0.0891584 0.0124206)
(-0.00485934 0.0220293 0.00296094)
(-0.00111951 0.00504768 0.000663968)
(-0.000281208 0.000893911 0.000164036)
(-0.244616 0.311919 0.183646)
(-0.059135 0.0505288 0.0439971)
(-0.0137088 0.0107341 0.0101212)
(-0.00306676 0.00241491 0.00224929)
(-0.000775429 0.000428373 0.00056558)
(-0.0490335 0.32692 0.0642529)
(-0.0165506 0.0945737 0.0180349)
(-0.00423392 0.0231604 0.00433441)
(-0.000995642 0.00526436 0.000988215)
(-0.00025049 0.000927289 0.000246307)
(-0.270062 0.295974 0.0721562)
(-0.0655897 0.0491914 0.017672)
(-0.0152998 0.0106229 0.00411662)
(-0.00344239 0.00241073 0.000924007)
(-0.000874565 0.000429457 0.000233213)
(-0.0723862 0.300988 0.0245041)
(-0.0215397 0.0866983 0.00724475)
(-0.00525751 0.021439 0.00171785)
(-0.00119401 0.0049279 0.000385178)
(-0.000299095 0.000875167 9.60756e-05)
(-0.281237 0.294669 0.0249515)
(-0.0677184 0.0487742 0.00607598)
(-0.0158172 0.0105238 0.00141911)
(-0.00355707 0.00238909 0.000319727)
(-0.000903165 0.000425228 8.0775e-05)
(-0.0752028 0.301068 0.00985091)
(-0.0224382 0.0860855 0.00265173)
(-0.00552453 0.0212303 0.000584534)
(-0.00116581 0.00489102 0.000163444)
(-0.000308918 0.000867195 3.20977e-05)
(-0.0204783 1.35592 0.00222675)
(-0.281538 1.92433 0.0185545)
(-0.256909 1.88007 0.184887)
(-0.0915342 1.31543 -0.0353765)
(0.0666875 0.774024 0.0304237)
(0.113398 0.814756 0.0326042)
(0.315667 1.14151 0.0951333)
(0.461455 1.19298 0.121858)
(0.0714605 0.894304 0.0769436)
(0.339037 1.00274 0.144201)
(-0.0669286 1.42259 0.12147)
(0.103926 1.94204 0.187284)
(0.100666 1.7988 0.14666)
(0.199581 2.38396 0.181975)
(0.377709 1.17451 0.0761281)
(0.534758 1.33916 0.102484)
(0.571055 0.921311 0.0810251)
(0.717041 0.984629 0.0961208)
(0.233224 0.500019 0.0421183)
(0.302093 0.548388 0.0437936)
(-0.796672 0.195851 0.0926772)
(-0.574893 0.128713 0.0671385)