/*--------------------------------*- C++ -*----------------------------------*\
| =========                 |                                                 |
| \\      /  F ield         | OpenFOAM: The Open Source CFD Toolbox           |
|  \\    /   O peration     | Version:  2306                                  |
|   \\  /    A nd           | Website:  www.openfoam.com                      |
|    \\/     M anipulation  |                                                 |
\*---------------------------------------------------------------------------*/
FoamFile
{
    version     2.0;
    format      ascii;
    arch        "LSB;label=32;scalar=64";
    class       volScalarField;
    location    "1.9";
    object      gradTz;
}
// * * * * * * * * * * * * * * * * * * * * * * * * * * * * * * * * * * * * * //

dimensions      [0 -1 0 1 0 0 0];

internalField   nonuniform List<scalar> 
5712
(
7383.62
24252.1
5863.82
24866
4400.55
25707.7
6939.18
39598.4
8524.86
54438.4
8465.13
39668.7
8169.22
32933.5
8491.05
29432.3
5139
3185.8
13738.6
8161.53
5031.52
2715.06
15022.7
7460.13
5624.46
4085.2
18030.2
12706.9
4254.63
3071
17732.7
12902.2
9980.67
4228.5
8626.88
3849.15
3975.93
9320.14
34419.1
9322.79
12332
4163.12
44306.6
12021.3
11533.7
3975.56
24601.5
7630.65
12630.9
4402.43
21407.9
6803.36
6131.3
3039.99
8961
3496.06
6636.95
3586.44
8735.15
3357.19
8402.18
4792.19
7530.04
3277.46
11099.8
3993.56
3816.24
1333.79
12584.3
8745.67
7770.23
5692.07
13995
11523.1
7642.14
6613.96
7388.26
5012.3
10451.5
7022.23
5110.46
3762.32
2584.02
2123.25
4917.8
4248.46
2529.65
2443.61
4919.04
3237.27
2510.45
1615.86
6619.46
3603.36
4981.74
5993.4
9087.37
6469.12
7236.94
10272.9
4368.87
2072.93
2932.83
3426.65
2162.15
900.286
1263.53
1269.26
8126.35
14562.6
5503.79
16247.5
9512.94
14251.4
6763.01
16998
10789.4
12893
8696.08
16569.3
12595.3
14919.7
9566.22
9237.08
10084.2
14917.7
13894.9
13744.3
14143.5
20361.5
12130.7
9423.41
8216.37
9214.8
14382.5
16874.5
15079.1
19557.7
18822.4
15452.8
14330
19307.8
18423.6
13371.7
13052.5
18099.2
17745.9
10906.7
8578.61
10255.2
8964.73
11242.4
10099.6
12125.2
11677.1
16635.2
17070.8
10186.9
8858.24
9802.11
9484.91
10159.6
10837.5
11452.7
12926
14918.7
17329.9
8441.7
6634.17
5783.26
7341.89
11335.9
13771
7848.1
12388.3
4928.24
6458.19
7357.85
6076.79
1416.28
4867.51
723.889
1744.65
4005.22
8315.25
1469.96
2875.72
700.705
4146.37
381.241
1451.11
4856.47
4930.16
5521.56
3453.26
7698.44
6177.99
9051.86
6275.86
1162.28
2701.41
2743.99
1576.21
1522
1967.99
2146.68
1624.01
12025.6
7313.19
2305.9
13603
7817.64
2561.14
11537.7
7237.69
2446.53
13386.9
7827.08
2559.72
10614.7
6649.12
2187.59
13057.4
7862.91
2628.07
5650.45
3091.46
847.136
7288.12
4806.67
1667.29
8727.02
6017.09
2074.48
10112.6
6555.63
2178.12
12927.7
8074.27
2822
6684.94
3791.86
1214.31
6897.18
4970.11
1876.84
8217.46
6067.62
2231.31
10253
7199.29
2577.86
13081.9
8181.54
2906.41
299.547
2021.82
2861.48
4127.05
2209.6
2531.72
5544.82
5254.37
603.545
1029.05
644.333
1071.71
487.249
1413.44
869.78
1853.49
3225.89
1576.61
4079.92
2359.47
2166.4
3783.02
3415.27
909.263
6143.58
1479.34
-1962.84
678.709
1766.26
1301.47
1213.75
1102.6
9779.09
4445.08
2669.51
1645.64
9932.31
4618.78
3365.05
2085.39
9804.14
4968.06
4876.38
3403.43
3495.41
2505.21
1698.82
1625.98
12676.8
11260.6
5963.34
6184.34
13686.8
12838.9
6749.57
6800.86
5281.36
5431.83
10861.6
9065.03
3548.88
3716.65
1968.51
2248.77
4150.48
4124.74
2264.24
2431.77
3080.5
3327.74
1711.88
2125.03
4692.97
3265.71
4676.95
3298.79
7316.99
4299.66
6968.29
4563.51
2818.7
2364.77
2958.32
2130.96
1561.51
1476.2
1879.44
1250.02
11552.7
7972.27
5789.49
5837.93
11506.4
8181.76
5819.26
5810.97
11959
8542.62
5902.58
5657.13
13906.2
15059.1
12650.4
8448.01
4776.29
14268.5
13158.7
12190.6
10051.9
6458.59
13375.3
12052.1
9613
7387.78
4596.31
6704.82
5915.56
6231.17
7072.09
6943.53
5839.46
6308.06
6998.68
7289.73
5854.57
6395.33
6934.83
10763.4
7604.34
9998.42
6953.34
7847.07
6329.88
7318.53
6245.75
5951.18
6897.2
8946.27
7767.53
7881.93
6877.56
6708.57
6077.39
5901.3
5848.86
4680.59
6558.48
7046.26
4765.37
4682.25
2802.6
9239.16
7122.42
6419.86
5171.63
3811.33
2286.21
5530.97
4080.79
4726.01
2234.42
1721.86
989.683
5018.28
3633.69
1743.89
1446.19
4079.56
1816.78
1599.3
839.276
3157.04
2895
2760.83
4037.31
4395.61
4141.66
3515.9
5161.33
3208.41
2069.11
2008.79
2747.58
963.479
462.726
199.758
505.241
4081.08
1703.42
503.175
4679.59
1215.01
323.851
4149.86
1847.83
567.744
4683.34
1267.84
354.753
3910.67
1847.39
478.978
4624.24
1296.85
304.946
4708.62
2399.23
543.494
4217.4
2038.33
483.806
4102.62
1965
532.496
4038.89
1889.88
402.694
4628.66
1280.68
193.163
5942.64
2999.19
808.272
5313.05
2639.5
723.589
4801.4
2368.96
688.995
4520.08
1933.89
476.88
5022.84
1203.49
295.082
1723.63
615.882
126.775
-172.424
718.832
270.724
75.1133
-32.8106
1826.07
674.767
177.868
-102.849
913.519
375.241
181.225
83.7648
1959.94
749.753
267.208
6.71498
1561.67
718.725
272.419
58.7889
1187.57
658.131
219.484
-19.6538
1105.59
712.202
401.762
231.552
1620.76
711.923
211.736
-163.03
1382.39
599.587
259.592
-159.242
1914.77
737.826
239.868
-109.312
1727.97
669.258
267.177
-259.719
1298.12
658.992
255.005
-54.7034
1059.91
527.2
277.254
1.78921
955.291
576.46
333.716
199.573
728.608
442.55
289.901
166.359
2185.45
741.549
128.473
-344.758
2149.69
681.212
186.966
-467.628
2184.04
752.546
147.424
-328.572
2084.24
663.12
194.201
-453.818
2143.4
755.454
222.027
-228.061
1948.64
628.235
236.731
-367.448
1881.77
698.941
302.494
-15.6337
2138.55
703.889
330.628
-427.695
1677.44
624.341
301.262
-98.2472
1691.86
479.035
166.327
-312.738
670.823
173.924
44.7632
-63.2993
1753.21
512.739
184.104
-297.53
701.338
188.604
56.8993
-50.2478
1793.31
551.039
225.423
-259.047
718.198
205.567
72.534
-34.5396
1621.11
520.406
258.363
-201.414
700.45
212.879
99.1481
-6.43229
1488.07
518.148
277.526
-112.976
630.804
225.117
134.252
31.383
1034.87
415.066
200.298
-35.661
594.945
291.709
173.483
89.7471
1196.37
423.606
209.929
-83.6148
601.315
255.457
154.746
61.3574
833.149
399.05
215.601
32.187
531.62
304.226
187.467
117.468
587.268
359.052
239.07
144.424
441.08
299.742
204.573
151.105
-15.59
6.13512
6.16967
4.18063
3.08786
-2.31461
4.20813
3.4913
2.31256
1.70835
7.82382
18.0755
12.6736
8.03662
5.83327
22.9804
17.754
10.9995
6.77041
4.87552
33.2245
32.636
20.9655
13.0955
9.48616
93.0362
60.3107
35.7719
21.835
15.6945
111.093
70.9602
42.1025
25.7737
18.5911
161.892
93.8776
54.0411
32.7685
23.5979
57.9376
47.6531
29.6134
18.3411
13.2053
62.4217
45.0317
27.3417
16.8909
12.169
40.1763
38.3302
24.2532
15.1542
10.9681
74.8822
47.0364
27.5099
16.8505
12.0962
75.5779
56.7881
34.8706
21.5618
15.5703
83.989
53.8476
31.9679
19.625
14.1459
128.597
75.6055
43.6434
26.4905
19.0705
107.55
62.4335
35.9824
21.8418
15.6987
-28.789
3.01307
4.5634
3.21064
2.39193
-15.7216
0.929385
1.79179
1.28594
0.971579
-13.3909
10.5309
8.59028
5.59092
4.10202
-10.2219
3.59236
3.19206
2.09864
1.55651
5.9975
19.281
13.1913
8.35228
6.11379
10.6691
12.4484
7.72743
4.71719
3.43103
49.2277
38.0694
23.0929
14.3126
10.4091
33.0401
24.1056
14.2687
8.76194
6.37088
91.4771
50.0838
28.2948
17.114
12.2785
1747.96
3990.68
1775.51
3956.02
1951.79
3931.16
2321.93
4087.33
2415
4205.77
989.56
1500.84
1603.61
2520.92
536.243
744
196.913
253.569
9064.9
2166.89
497.103
111.159
27.6536
2473.64
666.479
177.385
40.3801
8.79155
8952.44
2122.93
486.599
107.908
27.045
2518.4
742.963
183.256
42.6496
10.6065
8537.84
2010.95
459.28
101.732
25.53
2444.5
718.167
176.654
40.9066
10.21
7806.38
1822.8
415.124
91.8863
23.0692
2373.02
682.551
165.733
38.0407
9.44472
6524.21
1515.89
345.463
76.581
19.2533
2238.35
626.543
150.5
34.3319
8.49978
3076.22
747.492
173.308
38.7079
9.7498
1091.95
310.514
74.0235
16.5992
4.1009
4591.15
1099.93
253.031
56.2323
14.1395
1606.32
450.873
108.36
24.7054
6.15767
1803.9
441.801
102.916
23.1002
5.83033
612.604
181.119
42.9461
9.62946
2.40189
623.788
151.9
35.4778
7.99316
2.01937
246.273
66.2932
14.6133
4.0861
0.802444
55.6689
463.863
4622.17
-884.412
760.592
815.104
2378.33
3046.44
1923.59
3605.03
3036.76
4682.1
3666.5
4549.38
1903.2
2562.11
2025.63
2403.02
1052.96
1094.84
2316.93
1678.46
563.333
-383.012
-675.639
-808.237
-195.332
13182.6
3347.75
4403.71
2919.7
-52.6268
77.73
3068.47
-1251.24
-651.832
-937.761
-492.831
7229.5
3860.38
1435.68
1144.15
3711.21
2105.77
700.163
1432.68
-1352.56
-740.583
781.403
639.735
8776.82
4321.18
5423.12
2901.42
4101.28
4594
1606.87
-770.529
1020.14
1627.66
1317.8
1121.94
993.146
742.829
1322.32
1057.93
821.072
573.263
244.299
493.665
408.493
308.409
195.032
67.6006
-342.044
-285.337
-212.85
-130.732
-44.0145
-603.493
-503.773
-376.363
-231.581
-78.0305
-722.93
-604.577
-452.59
-278.982
-94.0963
-169.65
-134.998
-93.8666
-53.0747
-16.7064
9451.53
8059.32
6745.99
6029.14
5441.74
2903.84
2484.21
2249.89
1826.08
942.035
3348.58
2634.66
2166.7
1653.02
840.802
2218.66
1746.7
1474.01
1107.91
456.703
64.6675
77.4315
162.227
160.997
77.1664
149.044
202.353
217.619
176.488
72.2149
2581.53
2127.97
1649.6
1129.21
456.613
-747.466
-357.415
-136.201
-21.2508
7.32097
-516.253
-364.533
-218.054
-102.294
-25.9977
-653.705
-399.731
-202.108
-76.645
-15.1706
-447.479
-372.619
-272.663
-162.547
-52.9977
5300.35
4716.68
4005.81
3612.66
3273.55
2955.49
2309.81
1878.65
1394.14
663.867
1303.94
1150.24
948.631
664.107
257.765
999.887
844.574
667.372
449.977
168.703
3081.73
2468.15
1860.8
1222.09
465.302
1854.38
1560.07
1212.4
796.148
286.261
608.034
505.641
389.885
255.044
92.161
1258.62
1046.93
796.345
508.082
177.827
-1172.29
-945.027
-681.877
-407.767
-134.917
-651.873
-532.07
-385.748
-229.827
-75.5279
692.694
589.224
464.979
310.141
113.379
569.811
486.764
384.811
255.869
92.599
5636.47
4068.34
3438.39
3088.13
2629
3284.86
2535.7
1936.76
1361.13
603.541
3967.14
3213.75
2558.44
1947.91
931.76
2308.53
1866.26
1437.01
994.223
426.107
3477.01
2826.8
2141.38
1393.57
511.807
3468.35
2552.8
2029.75
1486.22
616.37
1398.76
1155.77
877.725
562.395
198.529
-684.167
-565.051
-415.532
-251.139
-83.4177
893.448
754.171
594.39
398.409
146.69
-28374.3
-46402.1
-23535
-37550.6
-25178.1
-52656.1
-30128.5
-66877.3
-17984
-12311.6
-20204.4
-12601.1
-16564.5
-10646.9
-20487.2
-10798.9
-23510.3
-17744.1
-34196.1
-24669.4
-20199.8
-16127.8
-28568.7
-21491.9
-16170.8
-16547.9
-13284.6
-12792.2
-15669.6
-14729.2
-39293.9
-10839.1
-14987
-5601.01
-48002.8
-13315.7
-13393.7
-4994.51
-29264.6
-9212.9
-15347.6
-5880.16
-26044.3
-8089.55
-12179.3
-4904.61
-15486.5
-5615.24
-11565
-5090.9
-13457.4
-4875.51
-11982.1
-5824.17
-10751.5
-4273.11
-13755.5
-4861.01
-4821.78
-1694.02
-10290.7
-6870.72
-8882.05
-5435.41
-9051.4
-7292.7
-7778.94
-5554.25
-9047.98
-5176.98
-10605.2
-6654.79
-6085.97
-3645.29
-3272.26
-2017.78
-5248.11
-3624.32
-2731.9
-1949.71
-6190.21
-3382.64
-3411.26
-1718.47
-7987.28
-4060.41
-5191.09
-6020.44
-10147.8
-6826.59
-7319.94
-10173.3
-5409.54
-2428.56
-3105.3
-3471.9
-2911.53
-1172.51
-1394.85
-1312.85
-12003.9
-14636.1
-6775.69
-16576.6
-12481.5
-13966
-7783.55
-16946.9
-12612.5
-12710.8
-9275.48
-16121.5
-8600.55
-6924.83
-9450.38
-10486.6
-10467.3
-9454.82
-10967.9
-12763.9
-13760.8
-19542.3
-6524.55
-6769.12
-7386.95
-8936.37
-13923.5
-13915.4
-9712.47
-17671.1
-13606.1
-12899.8
-9558.65
-17411
-13553.5
-11416.8
-8936.43
-16251.7
-13422.3
-7743.05
-6163.16
-8047.48
-6442.92
-9011.04
-7299.8
-9881.55
-8396.9
-14804.7
-13497.3
-7266.14
-6278.97
-7362.23
-6425.22
-8133.28
-7639.01
-9783
-9733.44
-13643.4
-14080.9
-6697.18
-5348.94
-4926.42
-6426.45
-8319.69
-11440.1
-6292.35
-10572.6
-4541.37
-5965.28
-6490.34
-5311.87
-902.85
-4236.25
-276.327
-1257.28
-3041.61
-7258.41
-693.945
-2042.49
-473.021
-3802.68
-167.358
-1177.67
-4677.45
-4649.79
-5387.21
-3256.62
-7245.32
-5643.34
-8721.49
-5753.6
-1061.25
-2516.27
-2654.65
-1452.79
-1423.35
-1816.05
-2066.01
-1518.39
-5897.24
-2028.36
-7985.32
-2723.6
-6028.97
-2117.8
-8175.19
-2933.7
-5983.78
-2085.77
-8654.79
-3335.12
-3632.22
-1025.35
-4553.72
-1744.69
-5164.92
-2003
-6232.33
-2357.86
-9141.73
-3638.18
-4611.65
-1406.2
-4220.29
-2077.91
-5112.79
-2425.39
-6887.19
-3005.41
-9493.61
-3588.86
-6233.67
-5835.77
-4733.39
-4635.7
-10476.3
-8008.44
-8535.16
-7066.88
-4183.26
-3593.61
-1717.31
-1222.88
-3949.85
-3784.6
-1591.03
-1647.13
-3030.3
-4664.87
-3585.32
-5039.48
-3780.5
-2531.02
-3305.82
-567.168
-6924.81
-1847.2
2554.38
355.65
-978.232
-345.404
175.308
600.112
-2405.48
-1658.75
-900.829
-523.477
-2570.38
-1761.77
-1368.58
-619.057
-2882.62
-2124.1
-1842.44
-879.61
-1246.12
-133.266
575.877
1012.69
-5140.71
-5522.86
-3986.11
-3723.01
-6974.49
-6983.39
-5798.57
-4868.38
-2590.57
-2879.85
-3852.71
-4421.74
-2426.1
-2103.42
-1031.65
-943.098
-3733.9
-2932.7
-1896.2
-1493.25
-1363.79
-1514.76
-255.88
-599.718
-1687.81
-1160.97
-2420.58
-1712.65
-2618.55
-2074.45
-3723.95
-2802.05
-623.634
-365.877
-1191.96
-669.769
370.436
502.149
-317.947
150.945
-3471.47
-4323.4
-2891.65
-4244.32
-3439.85
-4333.04
-2958.09
-4235.93
-3647
-4035.63
-3127.99
-4026.92
-2904.73
-4856.86
-2441.02
-2088.91
-2202.91
-7258.09
-5100.65
-4598.96
-4672.92
-4662.75
-5832.69
-4850.88
-4044.69
-3696.23
-2821.71
-5084.87
-5056.94
-6516.26
-10064.2
-4839.93
-4565.26
-6257.98
-9599.44
-4488.72
-4262.2
-5780.45
-8862.14
-7038.22
-5389.58
-6273.28
-4742.91
-5390.12
-4248.4
-5386.18
-4892.49
-5373.28
-8186
-5700.64
-5359.98
-4763.92
-4745.17
-4194.04
-4389.43
-4214.73
-4970.35
-3729.3
-7123.49
-3901.9
-2770.04
-2690.15
-996.624
-5694.52
-4973.91
-4421.67
-3274.65
-2035.26
-711.092
-3092.74
-2431.5
-3239.49
-999.841
-473.772
89.8901
-3672.98
-2413.92
-674.918
-401.31
-2636.89
-699.947
-306.415
167.111
-1791.53
-1808.07
-1901.87
-3576.28
-2773.82
-3086.09
-2710.46
-4978.01
-1960.53
-1197.91
-1056.52
-2186.05
246.723
390.82
809.18
161.818
-3609.25
-1051.43
-6737.28
-653.933
-3385.14
-1138.83
-6557.2
-679.722
-2620.78
-694.203
-5959.26
-515.422
-2968.05
-673.438
-2680.75
-626.993
-2836.24
-860.032
-2880.61
-534.253
-5603.18
-689.075
-4098.89
-813.875
-3692.85
-595.29
-3652.24
-709.014
-3942.63
-571.478
-5887.23
-702.764
-722.153
-155.542
142.329
369.587
-244.543
-41.3395
53.6027
114.568
-713.441
-125.393
153.744
343.569
-170.541
23.9053
48.2924
58.3765
-732.022
-90.658
146.231
292.799
-24.6558
205.763
327.809
355.147
497.121
424.783
494.192
496.588
931.38
646.033
487.155
345.144
-326.195
97.5005
340.313
568.442
-260.075
148.94
260.159
562.17
-787.267
-76.5283
205.197
457.651
-598.948
41.5014
225.643
689.432
112.672
272.709
365.755
478.935
49.7998
243.95
265.409
401.385
541.025
439.176
356.712
273.948
379.325
342.905
271.626
250.553
-1138.76
-260.417
167.643
605.184
-1410.39
-303.197
34.2178
749.739
-1093.23
-227.14
183.443
616.798
-1357.15
-280.844
35.4062
742.118
-1018.12
-176.285
135.919
525.731
-1234.36
-238.356
2.11147
669.387
-676.909
-43.0985
117.769
365.898
-1278.35
-205.684
-7.20867
828.712
-628.476
9.64158
142.79
525.329
-1303.47
-230.366
-19.8459
522.498
-566.053
-87.8343
17.2462
130.975
-1218.65
-198.751
-3.46942
524.759
-538.951
-77.4538
19.5452
128.298
-1046.5
-136.787
1.13535
507.939
-459.546
-51.4206
30.9968
133.775
-860.116
-85.0895
-16.8516
452.695
-376.487
-24.9579
28.5565
126.789
-630.29
-1.68183
28.1695
386.138
-194.224
35.5822
39.0546
122.42
-283.192
113.417
181.242
367.26
91.0097
181.467
154.987
178.718
-519.823
24.5429
102.191
373.879
-18.2201
115.319
96.4722
150.641
5.30179
209.747
226.031
332.257
201.305
234.801
196.382
190.777
294.742
292.365
233.296
236.628
315.545
275.036
206.802
175.264
81.0457
22.5279
8.67805
4.51294
3.11253
34.0435
10.7034
4.41072
2.34374
1.61787
93.6547
32.2185
14.6987
8.24505
5.83083
53.1417
23.0466
11.7635
6.86814
4.91481
114.642
44.7405
22.0198
12.6446
8.99237
134.62
66.4613
35.9837
21.3647
15.3646
149.688
76.8421
42.0681
24.9933
17.9254
166.463
94.2316
53.5631
32.2614
23.209
137.413
58.8539
30.387
17.7462
12.7382
116.198
51.7686
27.1237
15.8623
11.382
123.924
48.3254
24.1515
13.8902
9.89861
101.158
47.7561
25.7512
15.154
10.9047
147.42
67.5785
35.6502
20.9341
14.9994
118.208
58.5049
31.7293
18.7776
13.5011
138.819
76.7108
43.3353
26.0496
18.7307
115.588
63.4537
35.7375
21.4503
15.4293
88.7161
20.1208
7.02518
3.5173
2.3965
41.3073
8.12012
2.66338
1.29187
0.861592
94.8035
25.7167
10.6061
5.74557
4.00335
43.5211
10.1639
3.98841
2.12823
1.46275
96.9131
30.7395
14.1136
7.92044
5.55072
48.2135
16.6568
8.27587
4.83911
3.4211
106.195
42.384
21.6864
12.5247
8.86009
62.6392
25.3328
13.2599
7.73433
5.47044
88.1512
46.8301
26.1722
15.6115
11.2349
-1860.35
-3522.86
-1915.2
-3530.44
-2088.97
-3558.77
-2296.89
-3655.28
-2224.84
-3673.85
-886.971
-1366.7
-1460.96
-2263.74
-445.677
-651.009
-110.916
-174.648
-9041.03
-2145.16
-489.577
-109.048
-27.0391
-2435.51
-658.313
-174.801
-39.6462
-8.59767
-8882
-2094.35
-478.181
-105.72
-26.4269
-2483.48
-734.06
-180.459
-41.8506
-10.3744
-8393.52
-1972.66
-449.78
-99.4741
-24.9241
-2403.81
-707.046
-173.473
-40.0632
-9.97436
-7607.57
-1778.79
-405.31
-89.7046
-22.5106
-2308.86
-667.085
-161.967
-37.1397
-9.20872
-6338.33
-1476.86
-337.061
-74.7662
-18.8012
-2149.48
-607.675
-146.381
-33.4201
-8.27317
-3017.47
-732.844
-169.869
-37.9367
-9.55541
-1037.61
-297.146
-71.0263
-15.9509
-3.94358
-4480.2
-1074.22
-247.294
-54.9827
-13.8302
-1530.8
-434.364
-104.809
-23.9406
-5.97211
-1772.1
-433.72
-100.94
-22.6429
-5.71192
-573.124
-170.552
-40.4234
-9.06411
-2.26051
-603.077
-146.717
-34.1842
-7.68584
-1.93795
-213.852
-57.3411
-12.3779
-3.56566
-0.669766
66.0803
-1186.82
-5619.83
780.156
-6585.96
-2898.79
-6380.41
-2949.31
-11666
-6225.75
-13071.7
-6925.61
-124.328
-473.955
-741.93
-874.052
-780.065
-290.489
-203.606
-741.085
-1124.89
-1247.27
-1007.85
-330.646
-104.704
-110.76
-377.486
-378.956
-538.089
-532.836
-516.102
-492.642
-456.276
-446.391
-340.96
-321.04
854.629
2164.92
3511.6
2495.76
2285.58
1088.21
785.012
2224
3609.97
4194.74
3502.76
1584.99
-112.052
-94.6466
-71.6608
-44.6237
-15.146
-427.746
-361.944
-274.562
-171.239
-58.1712
-669.535
-566.467
-429.664
-267.961
-91.0301
-788.485
-666.832
-505.586
-315.211
-107.064
-703.666
-595.002
-450.969
-281.036
-95.4251
-264.339
-225.285
-171.476
-106.855
-36.2104
-183.375
-154.765
-117.09
-72.8733
-24.7281
-668.35
-565.053
-428.295
-266.97
-90.668
-1014.13
-857.06
-649.43
-404.749
-137.458
-1123.54
-948.697
-718.338
-447.497
-151.951
-907.072
-765.196
-578.942
-360.496
-122.392
-298.888
-253.167
-192.022
-119.627
-40.5944
-94.435
-79.8448
-60.5141
-37.7112
-12.8043
-99.9619
-84.5814
-64.1539
-40.0049
-13.5882
-340.826
-288.55
-219.001
-136.638
-46.424
-342.219
-289.786
-219.982
-137.271
-46.6434
-485.78
-411.217
-312.063
-194.682
-66.1415
-481.002
-407.124
-308.92
-192.704
-65.4679
-465.936
-394.416
-299.283
-186.678
-63.4123
-444.457
-375.93
-285.043
-177.705
-60.3512
-411.929
-348.605
-264.333
-164.718
-55.9107
-402.198
-339.621
-257.05
-160.01
-54.2936
-308.437
-261.258
-197.856
-122.925
-41.6063
-289.098
-243.812
-184.149
-114.353
-38.7332
757.205
629.842
472.893
294.558
100.434
1909.74
1583.96
1189.04
742.743
254.459
3060.48
2520.07
1892.76
1193.31
415.408
2159.91
1774.29
1336.56
847.277
296.187
2010.02
1656.23
1242.31
774.996
252.584
987.35
831.087
632.74
396.321
126.381
696.653
580.072
435.43
270.838
92.1965
1968.55
1636.31
1228.17
765.177
261.138
3174.65
2626.81
1970.05
1231.52
422.706
3663.35
3017.19
2261.94
1419.51
490.345
3058.35
2518.28
1889.2
1186.66
408.559
1398.8
1164.06
881.26
556.515
191.485
252.647
602.438
870.088
1000.57
902.345
420.509
383.965
919.042
1294.4
1396.08
1121.84
408.324
204.756
194.82
475.799
462.508
630.76
612.002
596.34
556.527
533.394
461.202
475.414
366.945
-703.344
-1936.59
-3117.3
-1969.99
-1650.59
-397.225
-719.947
-2120.53
-3380.84
-3782.36
-2909.69
-878.115
228.444
193.758
147.343
92.0784
31.314
544.387
461.34
350.521
218.902
74.4203
785.983
665.829
505.705
315.73
107.323
903.65
765.315
581.127
362.755
123.298
815.287
690.774
524.684
327.562
111.337
383.193
327.417
250.202
156.597
53.2333
347.064
294.239
223.664
139.735
47.5146
830.003
702.919
533.746
333.186
113.251
1168.3
988.766
750.353
468.216
159.119
1259.16
1064.84
807.572
503.736
171.169
1011.21
854.649
647.878
404.051
137.297
369.885
314.162
239.03
149.327
50.7582
185.166
157.074
119.462
74.6607
25.391
176.18
149.446
113.655
71.0274
24.1544
430.041
364.545
277.053
173.051
58.834
418.042
354.379
269.329
168.227
57.194
569.96
483.021
366.993
229.177
77.9052
552.953
468.538
355.934
222.247
75.5457
538.946
456.824
347.132
216.782
73.6886
502.67
425.777
323.331
201.83
68.5935
482.484
409.315
311.199
194.367
66.0623
416.469
352.645
267.685
167.028
56.7506
431.559
367.304
279.805
174.811
59.3829
331.737
281.16
213.498
133.179
45.2285
-619.293
-511.664
-382.1
-237.395
-80.9338
-1701.91
-1406.21
-1052.84
-657.265
-225.391
-2698.88
-2207.86
-1651.32
-1040.85
-363.524
-1663.6
-1332.5
-983.722
-617.322
-215.559
-1403.91
-1112.46
-803.712
-484.995
-148.567
-325.822
-235.539
-150.475
-76.0976
-11.5043
-637.605
-529.801
-397.076
-246.828
-84.0279
-1875.02
-1557.04
-1168.02
-727.742
-248.463
-2965.43
-2447.2
-1831.86
-1144.49
-393.035
-3282.03
-2685.03
-2002.29
-1253.49
-433.084
-2505.04
-2031.86
-1505.08
-938.395
-322.04
-736.806
-579.597
-417.594
-255.511
-86.2934
-1457.96
-918.785
-262.913
638.247
937.359
1189.92
546.867
-10938.5
-1752.62
-3185.21
-1518.14
239.848
-3948.31
819.14
2435.23
1146.05
-5941.67
-2716.08
-489.74
-568.658
-3342.08
-1283.4
-269.368
-1017.47
2090.31
1295.84
-514.273
-178.279
-7771.34
-3592.04
-4297.96
-2078.27
-3497.18
-3370.11
-1086.38
1309.61
-401.53
-709.893
-458.706
-385.681
-468.275
-528.222
-568.634
-361.79
-241.899
-176.029
-94.8367
-217.834
-170.186
-123.807
-78.0416
-27.542
577.413
489.766
372.135
232.238
78.9082
844.944
713.553
539.886
335.84
113.891
1072.59
905.95
685.735
426.795
144.789
496.821
421.916
319.368
197.662
66.5662
-7720.7
-6753.56
-5925.17
-5831.56
-5949.58
-1112.01
-722.286
-807.2
-914.624
-640.43
-2215.09
-1604.9
-1352.5
-1153.16
-698.841
-965.356
-622.197
-557.953
-491.101
-217.73
225.326
186.689
125.231
59.0987
11.4157
-3269.24
-2649.9
-2014.57
-1353.3
-538.821
742.172
621.823
459.402
275.206
88.9968
2112.19
1720.41
1267.87
778.927
263.444
1027.76
860.568
644.286
396.572
133.165
-4082.19
-3707.24
-3278.54
-3262.33
-3359.61
-1850.45
-1306.37
-1079.18
-890.167
-505.421
-377.088
-302.997
-263.31
-218.881
-105.095
-453.671
-357.289
-280.26
-201.403
-83.8244
-2767.96
-2217.1
-1683.2
-1122.7
-437.779
-1071.23
-859.146
-653.276
-434.572
-161.02
-206.596
-153.015
-112.509
-77.3341
-31.0513
-873.57
-710.949
-534.131
-341.36
-120.789
1863.71
1555.54
1165.06
719.696
243.004
1167.69
983.75
740.548
457.437
154.08
-426.337
-341.023
-260.901
-175.862
-66.8236
-134.246
-99.7489
-77.7303
-58.1002
-24.4567
-4691.44
-3217.61
-2757.25
-2669.76
-2552.18
-2589.9
-1909.27
-1430.55
-1028.3
-486.545
-2836.43
-2195.45
-1727
-1403.62
-723.297
-1525.24
-1161.26
-870.141
-624.878
-299.58
-2915.51
-2334.63
-1756.74
-1149.88
-429.305
-2318.95
-1510.69
-1205.72
-965.597
-442.277
-918.156
-738.081
-552.843
-356.374
-128.189
1181.89
997.907
753.26
466.61
157.538
-309.228
-234.885
-182.449
-133.377
-55.5032
1.95879
41.3826
92.8286
117.741
76.9711
-34.3251
-20092.3
-17740.6
-16888.2
-19246.6
-14728.9
-11663.4
-13246.4
-10057.3
-17442.2
-15308.3
-16073.1
-15133.2
-14109.4
-12024
-14838.2
-16546.1
-14792.9
-13577.3
-15310.5
-12438.5
-10533.8
-11097.9
-8898.83
-15655.9
-13931.8
-14427
-13161.3
-12498.4
-11670.7
-12062.5
-13003.4
-11919.6
-10751.4
-11762.6
-10346.3
-8886.56
-9273
-7963.29
-13115.8
-11939.5
-12210.3
-11163.4
-10625.6
-9825.73
-10129.9
-9088.25
-8551.5
-7588.95
-8048.58
-7673.77
-6883.33
-6891.37
-6303.61
-9460.74
-9565.38
-8926.82
-9011.8
-7963.59
-7199.82
-8001.13
-5814.52
-5557.86
-4885.14
-5098.24
-5142.5
-4657.33
-4550.54
-4205.18
-6268.19
-6270.33
-5988.59
-5865.12
-5453.49
-4928
-5335.58
-2093.57
-2019.15
-1767.68
-1830.75
-1900.53
-1776.2
-1668.19
-1555.84
-2375.98
-2374.27
-2223.9
-2123.59
-2049.6
-1880.99
-2014.94
-7595.62
-7485.64
-11373.2
-12262.8
-7142.93
-6341.9
-9975.1
-8108.84
-5928.03
-4394.98
-5886.29
-4363.73
-5909.3
-5655.51
-4439.03
-7562.6
-7176.41
-10118.8
-11036.9
-6663.98
-6033.1
-8800.18
-7578.11
-5895.43
-3854.96
-5794.09
-4079.47
-5293.97
-5092.14
-4466.68
-6896.19
-6575.14
-8572.89
-9194.08
-6181.72
-5753.42
-7671.81
-6790.08
-4868.83
-4175.56
-4858.65
-4414.61
-4541.63
-4549.4
-4588.87
-5557.62
-5353.38
-6417.48
-6740.49
-5087.69
-4760.34
-5942.66
-5425.25
-4659.99
-3748.94
-4585.34
-4007.47
-4293.95
-4266.12
-4101.72
-3831.19
-3713.49
-4239.47
-4400.75
-3454.98
-3200.25
-3995.78
-3670.64
-3265.9
-2882.47
-3194.96
-3039.19
-2993.92
-2942.85
-2911.22
-1425.26
-1383.03
-1548.68
-1599.82
-1280.89
-1177.86
-1468.59
-1353.35
-1065.94
-1054.99
-1139.5
-1153.15
-1107.8
-1077.1
-1061.7
7350.26
23752
5831.63
24863.9
4383.91
25709.7
6934.87
39606.8
8519.84
54450.2
8448.28
39665.1
8134.46
32915.8
8467.24
28795.3
5131.68
3184.07
13739.4
8161.66
5029.97
2714.87
15026
7461.32
5589.29
4057.63
17669.3
12469.1
4233.52
3062.18
17747.6
12920.3
9986.92
4221.71
8627.37
3846.75
3971.11
9328.16
34428.5
9324.09
12334.1
4163.17
44317
12023.6
11536
3976.23
24614.3
7632.99
12634.5
4403.01
21424.9
6806.41
6072.49
3011.25
8804.01
3437.03
6637.7
3587.01
8749.78
3362.72
8401.24
4792.38
7534.8
3279.74
11109
3997.04
3818.46
1334.66
12583.2
8744.96
7770.06
5691.87
13993.4
11521.8
7642.28
6613.79
7388.4
5012.27
10450.7
7021.94
5110.85
3762.34
2583.65
2123.06
4918.45
4248.6
2529.7
2443.6
4919.86
3237.35
2510.22
1615.67
6620.32
3603.92
4981.92
5993.7
9087.24
6469.44
7237.03
10273.3
4370.25
2073.52
2933.02
3426.85
2162.3
900.389
1263.42
1269.28
8079.09
14558.3
5470.28
16239.3
9515.02
14247.1
6766.43
16994.9
10789.6
12891.9
8696.9
16568.6
12594.3
14917.6
9565.78
9237.53
10085
14915.8
13893.7
13743.4
14143.1
20361.5
12129
9422.51
8215.97
9214.82
14382.9
16900
15120.2
19565
18803.7
15445.5
14324.6
19299.4
18418.4
13369
13048.8
18097.8
17744
10905.3
8577.55
10254.1
8963.64
11241.3
10098.2
12123.6
11675.2
16634.5
17069.7
10185.7
8857.2
9801.26
9483.89
10158.9
10836.4
11452.1
12925
14918.7
17329.4
8441.2
6633.91
5783.06
7341.84
11334.9
13770.2
7847.69
12387.8
4928.19
6458.29
7357.61
6076.69
1416.14
4867.5
723.8
1744.62
4005.08
8315.07
1469.96
2875.69
700.612
4146.43
381.129
1451.08
4856.57
4930.28
5521.78
3453.34
7698.45
6178.03
9052.13
6275.93
1162.27
2701.47
2744.09
1576.24
1521.99
1968.01
2146.72
1624.03
12054.7
7328.35
2315.09
13610.7
7828.19
2564.76
11533.9
7236.67
2446.47
13383.6
7825.44
2559.56
10612.1
6647.85
2187.29
13055.5
7861.59
2627.73
5649.65
3090.94
846.962
7287.14
4806
1667.07
8725.7
6016.22
2074.2
10110.8
6554.55
2177.79
12926.4
8073.25
2821.65
6684.1
3791.31
1214.1
6896.21
4969.38
1876.56
8216.38
6066.76
2230.98
10251.9
7198.37
2577.51
13081
8180.64
2906.04
305.053
2023.95
2876.03
4131.59
2212.02
2532.83
5552.93
5257
586.534
1016.55
625.05
1054.95
491.594
1412.99
874.231
1852.61
3238.27
1581.92
4084.62
2360.79
2170.12
3791.1
3420.06
913.241
6146.47
1481.38
-1950.66
687.214
1772.08
1306.74
1223.64
1110.5
9792.24
4441.98
2658.95
1638.22
9923.29
4618.55
3362.84
2085.2
9799.09
4967.01
4877.8
3403.09
3499.51
2505.77
1703.84
1627.81
12673.1
11258.5
5964.34
6184.42
13684.2
12837.1
6750.13
6800.85
5282.41
5431.83
10857.9
9063.26
3551.08
3717.26
1970.31
2249.38
4151.82
4125.13
2265.1
2432.08
3083
3328.34
1714.21
2125.73
4693.38
3265.72
4676.84
3298.69
7314.56
4298.94
6967.02
4562.92
2820.52
2365.34
2958.77
2131.21
1563.67
1477.24
1880.08
1250.48
11583
7976.89
5792.16
5838.28
11497.9
8181.01
5817.87
5810.75
11951.1
8539.13
5900.8
5655.87
13901.2
15055.5
12645.3
8444.42
4775.18
14265.6
13154.7
12186.3
10048.3
6457.14
13372.8
12049.3
9610.49
7385.94
4595.52
6703.09
5917.32
6227.2
7066.17
6941.59
5839.23
6305.63
6997.57
7287.58
5853.16
6394.41
6934.14
10761.5
7603.14
9995.91
6951.9
7844.62
6328.38
7316.36
6244.3
5950.09
6896.26
8944.67
7766.3
7879.95
6876.14
6706.68
6076.01
5899.79
5847.66
4679.76
6557.55
7044.64
4764.35
4681.73
2802.13
9237.72
7121.45
6419.35
5171.14
3810.88
2285.82
5529.6
4079.89
4725.99
2234.29
1722.12
989.794
5018.22
3633.53
1744.03
1446.24
4079.55
1816.69
1599.61
839.41
3156.71
2894.62
2760.61
4036.9
4394.64
4140.9
3515.38
5160.67
3208.41
2069
2008.82
2747.43
963.797
462.87
200.052
505.361
4084.19
1707.27
505.247
4683.82
1222.01
325.608
4148.69
1848.02
567.768
4681.32
1266.55
354.787
3909.73
1847.1
478.96
4623.48
1296.3
304.831
4707.85
2398.78
543.352
4216.57
2037.91
483.677
4101.75
1964.59
532.382
4037.99
1889.47
402.578
4627.98
1280.35
193.064
5941.78
2998.7
808.103
5312.14
2639.03
723.437
4800.51
2368.52
688.859
4519.26
1933.49
476.754
5022.17
1203.27
295.017
1716.84
612.056
124.57
-173.238
711.726
267.178
73.4837
-33.4888
1826.33
674.822
177.832
-103.019
913.62
375.265
181.15
83.6297
1959.83
749.712
267.163
6.59871
1561.54
718.692
272.386
58.6778
1187.67
658.186
219.526
-19.6603
1106.17
712.455
401.886
231.595
1620.77
711.943
211.75
-163.054
1382.42
599.625
259.618
-159.216
1914.59
737.784
239.857
-109.357
1727.84
669.233
267.175
-259.71
1298.33
659.099
255.068
-54.6818
1060.07
527.3
277.314
1.8264
955.729
576.67
333.827
199.624
728.883
442.707
289.995
166.415
2184.69
740.666
127.087
-345.795
2151.99
681.784
186.476
-469.134
2183.58
752.341
147.393
-328.642
2083.79
662.96
194.277
-453.691
2143.02
755.331
222.018
-228.057
1948.2
628.097
236.746
-367.358
1881.45
698.827
302.451
-15.6871
2138.14
703.776
330.614
-427.639
1677.23
624.279
301.229
-98.3056
1696.98
480.931
166.794
-314.763
674.09
175.007
44.9505
-64.0555
1750.85
511.992
183.945
-297.182
700.356
188.325
56.8139
-50.0942
1792.76
550.845
225.432
-258.922
717.919
205.474
72.5269
-34.4639
1620.75
520.282
258.342
-201.358
700.275
212.815
99.1331
-6.40852
1487.83
518.07
277.499
-112.957
630.691
225.073
134.23
31.3807
1034.87
415.092
200.318
-35.6384
594.959
291.723
173.487
89.7475
1196.25
423.584
209.924
-83.5987
601.26
255.435
154.729
61.3481
833.252
399.128
215.651
32.2263
531.713
304.288
187.502
117.49
587.461
359.177
239.149
144.481
441.239
299.849
204.639
151.151
-16.5496
5.54027
5.81759
3.95586
2.91676
-2.95654
3.79946
3.23786
2.14357
1.57606
7.79411
18.0553
12.6551
8.02034
5.81581