/*--------------------------------*- C++ -*----------------------------------*\
| =========                 |                                                 |
| \\      /  F ield         | OpenFOAM: The Open Source CFD Toolbox           |
|  \\    /   O peration     | Version:  2306                                  |
|   \\  /    A nd           | Website:  www.openfoam.com                      |
|    \\/     M anipulation  |                                                 |
\*---------------------------------------------------------------------------*/
FoamFile
{
    version     2.0;
    format      ascii;
    arch        "LSB;label=32;scalar=64";
    class       volScalarField;
    location    "1.9";
    object      gradTy;
}
// * * * * * * * * * * * * * * * * * * * * * * * * * * * * * * * * * * * * * //

dimensions      [0 -1 0 1 0 0 0];

internalField   nonuniform List<scalar> 
5712
(
11869.4
6845.21
19229.1
12614.9
20992.2
15548.8
32926.3
40862.8
43304.2
53042.1
28019.2
24361.1
17794.8
14116.1
8937.17
6047.34
19880.5
20283.7
17146.8
20114.7
26858.3
23920.9
31039.8
25061.1
8365.9
6010.11
4705.96
3499.84
9997.76
8134.78
6076.16
4918.66
18245.7
18904.7
18604.7
15644.5
14445
11325.8
11364.5
12916.3
18306.1
18228.8
38465.8
39776
27208.6
28042.4
15579.7
13136.6
16938.2
12071.2
7877.91
8097.94
6478.83
9121.6
3391.39
4103.36
8877.21
12222.5
5291.92
6191.46
9819.28
16582.4
6811.67
11189
2593.79
6646.32
2159
4956.28
17861.6
22076.9
18466.5
22006.1
21838.5
22037.1
22277.4
21777.2
15736.9
21340.8
16145
21064.7
18204.8
21867.2
18206.5
21822.5
22483
21511.7
22417
21313.3
14550
21436.9
14051.6
21516.8
17821.8
20973.2
22502.7
31475.7
18876.4
24240.1
22302.9
34213.2
16897.1
18451.3
22589.3
30247.3
16718.9
17260.7
22831.9
30012.3
5387.34
7063.21
13753.3
24063.7
6673.73
7602.95
17694.8
27342.2
8298.63
8387.63
22411.9
30481.3
24609.2
26331.4
20915.1
20287.5
29554.5
26486.9
25089.2
21338.5
18563.8
33812.5
24150.5
23906.4
21378.9
21364.5
38594.9
2076.45
2494.98
4454.78
10198.9
2945.5
3339.99
6143.91
11413.5
4385.4
3715.53
8345.11
13069
26178.3
25789.4
23670.6
23213
20382
18598.8
15476.6
13658.6
10967.7
15301.9
23859.2
22981.5
24112.1
23668.4
21030.8
19668.4
17473.2
15641.1
11684.1
15433.3
23915.9
26912
23856.3
27588.3
23064.7
23855
22524.8
24038.7
21807.5
22177.5
21627.3
21528.4
23672.2
27709.6
23567.4
27687.9
21871.2
24342.4
21694.1
24290
21891.6
22127.4
21887.9
22115.3
18397.9
17488.8
11876.2
13223.1
18274.3
17031.9
11698.6
13283.1
18652.3
17434.7
12133.9
13272.6
18727.6
17257.8
12510.7
13279
1684.32
1134.2
784.749
973.504
665.53
620.218
2344.69
1391.53
1049.89
1916.74
1535.08
1319.09
2715.01
2241.76
2241.4
3367.83
2742.89
2457.48
24542.1
22058.9
20335.3
22635.3
20893.7
19516.6
16273.4
15037.6
14357.6
11098.1
9569.59
8918.65
5137.36
3765.92
3180.08
22220.2
20468.6
18999.4
22872.3
20734.6
19090.2
16990.5
14511.7
13109.6
11115.5
8836.15
7904.32
5462.31
3746.11
2994.58
27217
26609.1
29666.4
26598.9
30531.1
26601.5
36890.8
28037.1
21080.1
21384.3
20825.9
19319.4
23652.1
22260.9
23238.7
19850.3
23010
22822.5
21189.9
22642.6
28200.3
25352.6
28031.3
28470.5
30462.8
31516
23342.8
24230.3
20898.3
20290.5
25407.2
26071.4
16519.5
8919.04
15455.5
9871.8
16765.3
9000.41
15415.9
9811.58
16542.4
9048.22
15378.2
10225
14963.4
10697
15147.6
10609.9
21264.8
18166.8
21164
18152.4
23486.8
21198.3
23744.2
21001.5
20724.3
15157.4
21597.6
14949.6
21646.2
18072.7
21925.8
17870.6
24369.5
20837
24393
20573.3
20536
15208
20482.8
15116.1
13602.2
9088.34
12009.9
7724.82
12668
8145.34
11537.2
7220.7
13942.6
9655.91
12206.9
7960.09
13964.3
10003
12177.6
8017.94
2592.57
1354.08
4752.45
2549.01
2769.59
1666.86
5066.4
3061.77
3413.79
2525.4
5616.12
4023.79
13173
20384.5
9506.74
9125.55
6503.45
19953.7
13909.4
8174.62
8217.17
5356.5
20764.3
16356.5
13015.7
10142.8
6334.64
724.339
548.347
1453.08
1069.18
1032.75
715.464
2066.2
1645.26
1801.31
1401.36
3019.63
2460.88
20243.4
19572.4
13734.3
13154.4
8942.91
9008.76
7534.75
6924.11
4582.15
3763.1
18998.4
17265.7
14740.1
12938
11490
10205.8
8751.57
7906.57
5597.5
5534.64
15111.7
12232.6
15205.5
11941.2
18156.2
15071.7
18118.5
14864.3
12743.9
10343.1
12364.3
10379.9
15210.7
11757.3
15117.9
11739.3
18050.7
15148.3
17878.8
15104.6
12973.4
10182.2
12951.8
10317.2
9941.07
8421.84
6601.16
6952.31
9580.23
8240.02
6298.02
6590.62
10363
8586.78
6769.14
7358.69
10608.9
8586.14
7034.79
7465.26
1773.6
1560.47
1292.62
7655.02
4101.99
3355.48
1724.35
1700.42
1510.49
8313.84
4859.95
4122.07
2369.16
2655.73
2722.84
9206.33
6098.8
5434.17
18382.3
17121.6
16218.7
12599.6
12173.5
11901.6
9208.55
9065.32
9041.19
7909.56
7628.13
7430.3
10502.4
7548.4
6820.34
15687.6
14396.7
13528.5
11705.9
10848.4
10359.1
9753.29
9016.69
8597.86
9388.27
8306.58
7677.32
12783.1
8523.63
7650.74
4931.99
3104.91
2189.93
1801.08
5556.37
3375.71
2311.49
1845.02
4956.66
3101.21
2194.64
1814.11
5677.99
3445.51
2358.38
1868.83
4941.97
3066.91
2200.37
1810.1
5792.94
3488.72
2412.18
1874.48
6238.64
3696.7
2463.73
1941.74
6426.8
3841.59
2541.2
2012.94
5270.94
3266.01
2288.94
1834.84
4293.38
2854.66
2095.09
1762.17
4616.66
2953.32
2134.54
1711.65
3946.77
2688.07
2010.61
1692.3
5710.25
3502.57
2397.72
1915.12
4501.1
2976.66
2149.06
1817.11
5958.64
3663.8
2475.96
1974.59
4592.5
3064.21
2194.97
1850.46
3707.66
2657.63
1992.51
1708.97
2375.76
2121.31
1751.47
1606.75
3717.4
2644
1989.31
1705.1
2483.89
2150.77
1762.06
1615.73
3807.26
2641.37
1999.89
1714.51
2815.07
2248.33
1801.16
1655.33
3757.79
2573.65
1962.57
1748.12
3099.86
2316.11
1851.3
1647.17
3483.29
2494.25
1915.07
1667.15
1025.51
1685.24
1389.92
420.581
-492.304
1442.12
1242.94
444.411
1266.14
1764.81
1421.94
443.948
-193.564
1530.8
1270.61
453.942
1718.28
1905.78
1470.29
442.514
314.124
1680.63
1311.09
459.154
2272.37
2073.56
1541.69
480.554
856.182
1846.99
1369.62
478.929
2639.2
2227.21
1630.29
559.864
1004.48
1973.15
1424.07
496.209
2816.97
2396.33
1669.86
532.487
696.774
2107.35
1525.41
526.641
2747.05
2321.43
1639.81
532.778
656.973
2045.03
1474.12
508.6
2838.96
2449.55
1693.38
496.535
639.088
2161.05
1559.62
529.866
2899.66
2505.72
1738.76
507.28
742.63
2219.99
1601.37
542.93
1605.4
1199.7
811.348
465.498
151.388
1587.96
1197.33
811.989
466.139
151.607
1625.43
1209.61
816.097
467.672
152.015
1612.99
1209.99
818.34
469.116
152.478
1664.12
1223.73
822.264
470.424
152.807
1644.4
1225.07
825.831
472.645
153.519
1668.82
1242.26
835.733
477.597
155.015
1708.1
1266.96
849.827
484.653
157.147
1703.45
1240.7
831.156
474.728
154.093
1818.15
1261.39
836.989
476.873
154.676
1711.7
1236.31
826.867
472.335
153.342
1815.72
1253.91
832.245
474.447
153.931
1718.98
1255.79
840.02
479.193
155.448
1851.3
1276.04
845.056
480.905
155.901
1758.06
1279.78
853.282
485.778
157.439
1892.8
1297.44
856.54
486.595
157.628
1649.7
1205.75
811.295
464.985
151.196
1734.33
1212.55
811.464
464.685
151.08
1668.57
1213.57
814.831
466.561
151.643
1749.35
1218.44
814.165
465.895
151.425
1707.11
1226.66
820.395
469.028
152.346
1782.41
1229.17
818.964
468.061
152.043
1769.46
1241.67
826.032
471.452
153.03
1822.03
1240.69
824.438
470.57
152.753
1828.47
1249.39
829.229
472.898
153.448
10072.7
15510.4
10541.7
15783.8
11226.2
16128
11673.6
16320.6
11167.2
15644.4
10309.8
11621.2
10333
12202.7
10361.7
11510.4
10539.1
11645.3
8932.14
1529.76
326.913
73.3367
12.9882
9937.2
2829.03
686.98
155.886
27.5975
9011.69
1515.91
321.65
71.8884
12.698
10009.6
2813.7
680.74
153.75
26.9877
9074.79
1505.99
316.908
70.5319
12.4333
10054.6
2796.81
673.131
151.491
26.5541
8967.8
1456.65
303.838
67.4625
11.8856
9911.91
2732.05
655.261
147.24
25.7847
8480.5
1342.74
279.515
62.2588
10.9947
9364.68
2586.16
622.355
140.257
24.6001
7512.59
1236.74
265.854
60.1901
10.7121
7691.13
2228.96
550.733
126.192
22.3478
7797.99
1263.22
268.353
60.3727
10.7093
8173
2364.34
579.009
131.609
23.1822
7399.36
1229.79
265.572
60.2682
10.7364
7524.7
2167.46
535.975
123.197
21.8792
7366.72
1219.35
263.095
59.7273
10.6307
7526.71
2152.14
530.758
122.275
21.6799
33898.1
48108.2
47001.7
32885.7
19350.6
20368.9
28537.6
29824.5
22357.6
25068.6
35564.7
48551.1
44970.1
59599
29362.8
33479.1
23032.8
24615.7
12500.5
13709.7
4896.28
3217.82
811.852
617.366
696.459
607.468
747.295
4762.92
4675.8
2807.71
3933.57
3753.25
1613.8
2246.12
2026.69
1326.28
1532.27
1249.94
4299.72
2300.4
1446.46
1277.14
1638.18
1416.09
1101.21
1036.74
967.957
846.902
1163.8
1048.21
4511.6
2716.05
3122.96
1967.9
1609.97
2286.09
1123.35
872.129
1238.41
9913.61
9929.83
10056
11199.1
18214.2
7098.83
8089.76
8792.31
9813.69
11374.9
2131.58
3037.45
3722.63
4187.77
4427.85
1634.25
2355.98
2913.45
3292.74
3485.62
1841.2
2647.91
3264.97
3679.97
3888.86
1609.82
2324
2876.02
3250.34
3439.6
1970.34
2823.26
3472.19
3909.32
4130.86
9974.67
10207.5
10011.2
10539.8
16293.8
9767.15
9821.56
9461.39
9622.02
10918.2
6429.38
7576.15
8132.84
8649.86
9300.21
8470.09
8840.68
8567.59
8462.87
8647.97
8078.02
8508.59
8223.05
7986.74
7968.38
4012.17
5283.09
6073.46
6570.35
6846.12
5322.42
6552.8
7177.7
7574.48
7859.77
4866.83
6090.85
6712.07
7041.85
7213.81
3372.62
4581.17
5384.83
5886.99
6141.59
3827.04
5065.04
5827.31
6278.85
6503.88
3198.59
4381.46
5178.78
5673.14
5916.48
9180.13
9716.62
9813.54
10598.6
16587.1
5450.41
6757.8
7548.79
8230.83
8927.3
3651.18
4915.62
5757.96
6313.59
6627.41
3261.16
4466.31
5307.9
5875.07
6190.97
4070.87
5377.49
6244.51
6867.77
7289.48
3584.84
4858.37
5748.12
6378.53
6761.25
2843.79
3962.03
4781.02
5347.82
5660.47
2692.82
3777.03
4569.62
5102.14
5381.09
2526.59
3564.13
4320.02
4812.59
5058.21
2223.61
3165.18
3868.25
4334.72
4569.19
2997.69
4149.73
4957.26
5480.13
5748.4
2720.19
3808.35
4595.39
5115.94
5384.46
9366.08
9667.18
9844.36
10886.3
17472
6189.83
7357.9
8159.74
9096.4
10303.8
7226.02
8418.37
8997.12
9930.06
12007.7
4779.55
6155.47
7100.68
7905.48
8583.58
4019.46
5354.97
6283.52
6986.25
7466.24
5425.29
6763.21
7620.37
8405.23
9214.38
2899.13
4033.11
4856.14
5418.94
5725.88
2284.69
3243.24
3958.7
4437.85
4682.56
3171.41
4363.58
5209.91
5788.92
6113.31
18680.6
12414.5
19237.2
13751.2
24911.7
35657.1
26049.5
35492.7
19766.6
20889.7
16973.8
20200.3
22421.3
21288.1
28603.7
23401.3
14424
13516.2
7067.42
6044.49
15712.7
14389.6
8113.8
6633.22
19442.1
20997.8
19906.3
18141.8
20316.2
13380.4
11179.2
12886.3
18240.9
18205.9
37956
39673.5
26488.3
27849.1
16195.9
13269.2
17655
12200
8562.54
8263.93
14245.4
15784
5957.86
6505.61
15665.4
17900.2
7426.77
8208.85
14925.2
20900.6
8663.5
13380.1
3023.5
7400.03
2245.2
5103.14
18381.4
20994.8
18324.9
21375.5
20003.4
20267.9
21097.5
20789.9
16766.3
21205.1
19025.6
20907.6
18022.8
21529.5
18133.7
21712.9
21877.7
21008.4
22239.3
21157.7
14856.1
21337.7
14100.7
21476.9
18743.2
22227.2
22747
31786
20426.4
26338.6
22827.1
34868.9
17315.2
19054.9
22679.5
30380.1
16826
17428
22847.8
30046
19541.5
21102
24551.1
36450.6
19647.1
20093.4
26270.9
36918.1
19339.2
18989
28259.6
36606
18581.8
19403.8
19927.6
21281.1
32123.5
18637.8
17463.9
21258.2
19436.5
36744
19446.1
20343.6
20252.1
22051.5
39705.7
11638.4
10628.7
10841
14061.9
12742.5
11654.9
11230.3
14445.6
14029.8
12141.4
11743.3
14757.3
18039.7
17298.5
16981.8
16478.8
19689.9
18362.7
16305.5
14653
12294.7
15390.8
19076.3
18807.9
20274.1
20365
19521.5
18340.9
17775.7
15768.8
12103.8
14875.7
22080.3
24828
22933.8
26471.2
20811.3
21685.2
21446.1
22971.2
21313.3
21530.8
20777.9
20493.2
23222.6
27170.1
23430.9
27527.4
21368.5
23826.5
21545.3
24139.6
21624
21796.2
21803.1
22016.4
18280.1
17233.7
11919.4
13132.2
18208
16749.7
11891.9
13190.8
18561
17282.4
12131.6
13210.7
18693.5
17208.2
12504.6
13255.8
9716.79
9865.08
4193.67
3857.17
10838.3
10478.8
4698.11
4491.15
10555.8
9873.04
5345.12
5153.62
16991.2
16438.5
16645
16680.4
16663
16117.1
12580.9
11229.3
6308.77
5194.38
19045.1
18220.5
20440.9
19591.5
16299.7
15063.8
11758.4
10065.2
5798.53
4339.95
22296.8
21165
27404.6
23894.8
24861.5
22122.2
34127.6
25686
20386.2
16803.2
22239.3
17650.7
20258.4
17083.4
22333.5
17881.5
20861.6
18456.1
18844.2
17492.4
21358
22681.4
26676.7
28059.7
29329.1
31188.9
22002
23758.6
19845.4
19990.1
23881.4
25558.2
13707.2
10142.6
14159
10373.7
13987.4
10054.7
14351.2
10226
13893.6
9905.06
14292
10422.3
14333.7
10733.7
14942.1
10615
17391.8
16861.9
19239.7
17347.2
19953.4
19101.2
21870.6
19837.8
18911.2
14858.2
17945.7
14666.1
20693.1
17645.2
21642.8
17741.2
23460.2
20251.8
24130
20396.8
19638.1
15019.8
20220.9
15057.6
13198.4
9504.72
12215.8
8107.07
12617.9
9214.16
12142.5
8028.16
13628.8
9809.51
12271.4
8138.7
13854
10039.5
12194
8075.93
13180.8
13314
9525.06
8784.6
13316.9
13425.3
9379.38
8711.76
13266
12899.3
9146.57
8611.86
15373.7
18145.9
16175.9
12049.5
8884.22
16827.3
15737.7
17582.1
12075.3
8585.39
18557.1
16431.9
14578
12245
7955.95
13834.1
14906.2
8711.3
9351.58
13696.4
14519.2
8635.36
9226.37
12793.4
13214.2
8269.56
8382.97
16623.4
15716
15008.2
14401.6
15576.1
15949.8
12160.2
12884.3
8033.88
7844.45
16832.7
15391.1
15148.3
13793.8
13623
12974
11542.2
11487.7
7422.1
7865.22
14835.9
12639.9
14912.7
12076.9
16812.6
14232
17346
14423.4
12914.9
10909.8
12996.6
11671
15023.8
11813.4
15059.5
11754
17663.9
14930.5
17763.5
15042.3
12994.8
10425.8
12944.8
10378.5
10441.9
9215.49
7094.91
7687.3
10724
9899.54
7272.83
8065.87
10562.4
8938.88
6998.87
7750.18
10665.4
8688.48
7112.47
7588.1
17630.6
17563
23853.4
20143
16939.8
16984.9
22878.2
19260.1
14885.6
15475.7
21006.9
17906.5
15191
14645.8
13947.2
13721.4
16081.3
16474.9
14786.7
14717
19276.5
16380.5
14333.8
13608.6
13084.7
12873.4
13288
13580.4
14153.9
13802.9
18789.4
15017.6
6412.23
4084.7
2775.13
2193.5
6653.19
4215.44
2851.53
2212.76
6297.79
4011.18
2729.14
2171.4
6593.73
4171.84
2825.03
2188.29
6089.28
3867.25
2668.18
2121.98
6504.14
4073.46
2802.38
2143.73
6653.37
4064.24
2727.22
2131.99
6565.5
3969.34
2630.25
2079.12
5871.64
3728.12
2608.42
2071.27
4699.3
3185.46
2321.63
1940.16
5562.54
3610.4
2549.49
2000.29
4609.56
3196.58
2312.65
1905.14
6041.83
3778.48
2598.35
2066.89
4720.42
3163.53
2291.1
1937.99
6061.41
3756.18
2544.91
2027.67
4661.65
3125.09
2243.49
1891.99
5909.78
3837.15
2636.47
2128.94
5076.24
3471.64
2453.23
2054.03
5758.38
3760.9
2593.01
2096.69
4972.18
3428.31
2429.22
2043.29
5546.03
3637.34
2541.93
2069.26
4895.36
3371.59
2400.7
2040.09
5095.2
3410.64
2427.47
2058.59
4721.58
3277.04
2359.69
1959.35
4465
3181.86
2289.8
1906.1
3850.86
3098.25
2043.31
577.086
1957.84
2859.35
1908.59
633.775
3885.8
3096.38
2044.23
597.238
2114.31
2862.19
1905.97
636.204
3949.55
3075.97
2021.49
570.371
2331.46
2849.1
1881.19
621.703
3907.64
3024.35
2026.67
599.822
2351.92
2803.73
1861.73
621.669
3641.38
2920.34
2023.14
676.118
1847.8
2695.13
1825.88
617.741
3125.73
2690.49
1905.8
618.298
857.255
2420.44
1739.08
599.789
3311.03
2788.9
1960.04
636.071
1041.65
2539.09
1776.71
604.996
2993
2611.05
1836.62
550.856
697.949
2331.45
1684.9
574.545
2944.2
2557.2
1786.11
525.678
754.216
2273.27
1641.92
557.649
1897.31
1372.64
906.439
512.191
165.352
1854.77
1361.45
903.321
511.162
165.086
1896.16
1367.4
902.755
510.22
164.741
1848.41
1353.33
898.027
508.401
164.241
1911.17
1363.04
898.414
507.78
163.978
1843.11
1343.9
891.753
505.134
163.248
1805.42
1324.71
881.662
500.275
161.81
1758.34
1298.06
867.24
493.271
159.733
1885.69
1348.16
890.095
503.684
162.757
1991.41
1357.11
888.805
502.25
162.264
1943.28
1363.96
896.1
506.239
163.477
2039.07
1368.92
894.025
504.638
162.952
1839.38
1329.53
880.76
499.258
161.457
1963.57
1340.92
880.436
498.282
161.103
1799.76
1305.32
867.47
492.786
159.543
1931.38
1320.03
868.911
492.691
159.461
1980.7
1389.04
910.166
513.268
165.615
2117.86
1403.84
912.762
513.946
165.776
1984.79
1385.82
907.58
511.843
165.166
2119.22
1400.95
910.715
512.845
165.432
2001.43
1381.51
903.479
509.578
164.456
2125.9
1395.33
906.792
510.783
164.792
2045.45
1379.98
899.805
507.43
163.774
2135.94
1386.97
901.915
508.299
164.016
2092.09
1376.86
897.264
506.09
163.362
11941.9
15745.3
12001.4
15750.3
12129.6
15742.8
11918.9
15539.8
11125.1
14759.5
10284.6
11520.6
10328.5
12002.7
10339.4
11456.2
10530.6
11628.3
9228.39
1539.11
324.365
72.2641
12.7529
9936
2817.46
680.143
153.582
27.1029
9187.13
1513.46
317.756
70.6563
12.4477
9890.06
2781.89
670.927
151.054
26.4551
9063.99
1485.53
310.965
69.0556
12.1589
9771.13
2736.75
659.212
148.259
25.9656
8798.77
1423.05
296.646
65.8792
11.6075
9515
2652.62
638.652
143.699
25.1728
8286.35
1310.62
273.001
60.8566
10.7518
8991.4
2509.79
606.391
136.9
24.0294
7448.49
1224.24
262.826
59.463
10.5797
7606.85
2200.15
543.091
124.384
22.024
7690.28
1242.5
263.629
59.2951
10.5184
8009.18
2314.31
566.94
128.924
22.7174
7364.41
1223.01
263.887
59.8514
10.659
7482.22
2152.77
531.893
122.192
21.6943
7355.55
1217.19
262.553
59.5917
10.6053
7513.5
2147.67
529.495
121.957
21.6205
33452.4
47825.5
45992.7
31537.2
24600.8
29367.3
23769.2
29248.9
27596
43907.2
29275.4
44972.5
173.452
189.121
223.918
280.583
363.815
479.408
186.552
202.755
238.608
296.44
379.647
492.409
163.637
158.815
180.174
176.95
217.046
217.58
277.597
285.575
365.539
383.344
481.63
501.877
634.591
837.555
1107.32
1472.46
1897.71
2204.26
639.161
823.432
1047.71
1303.4
1550.43
1711.17
464.293
680.777
854.879
976.594
1039.18
505.985
741.366
930.324
1062.21
1129.95
598.602
875.952
1097.85
1252.3
1331.48
749.136
1094.07
1368.67
1559.05
1656.43
969.474
1411.66
1761.17
2002.24
2125.26
1273.59
1846.02
2293.87
2600.99
2757.5
499.169
731.535
918.201
1048.57
1115.55
542.222
793.947
995.727
1136.39
1208.57
637.482
932.005
1167.17
1330.6
1414.31
790.801
1153.49
1441.44
1640.75
1742.63
1010.54
1469.11
1830.43
2079.34
2206.38
1306.48
1890.31
2345.78
2658.08
2817.53
438.073
642.5
807.059
922.184
981.403
425.169
623.633
783.472
895.333
952.876
482.138
706.664
887.089
1013.12
1077.87
473.52
694.098
871.431
995.334
1059
580.371
849.628
1065.3
1215.53
1292.58
581.804
851.783
1068.11
1218.81
1296.09
741.402
1083.34
1355.89
1544.97
1641.7
762.676
1114.39
1394.71
1589.12
1688.54
974.484
1419.87
1772.31
2015.46
2139.47
1021.82
1488.51
1857.51
2111.79
2241.33
1280.41
1857.73
2309.98
2619.83
2777.38
1334.26
1935.72
2406.34
2728.08
2891.28
1677.37
2413.52
2981.25
3368.69
3566.89
2195.44
3122.34
3823.63
4303.12
4553.31
2862.08
3994.32
4830.14
5413.26
5735.86
3717.66
5033.67
5978.26
6680
7125.96
4638.55
6029.54
7005.57
7820.25
8460.82
5274.31
6674.16
7648.33
8540.46
9339.4
1687.81
2425.43
2993.55
3381.93
3581.3
2159.43
3073.3
3766.21
4240.86
4488.51
2720.74
3820.84
4639.94
5207.87
5515.11
3340.99
4612.06
5540.84
6203.14
6585.31
3918.13
5310.81
6313.09
7057.69
7524.34
4285.51
5743
6784.91
7583.56
8112.34
175.81
196.312
236.532
299.537
390.334
514.861
188.996
210.201
251.532
315.51
405.531
525.375
165.99
161.238
187.431
184.477
229.924
231.086
297.313
306.637
393.62
413.274
520.828
544.991
678.805
886.83
1154.94
1508.52
1916.95
2209.73
678.194
865.463
1087.76
1335.54
1570.45
1717.86
470.614
690.106
866.705
990.209
1053.73
525.359
770.075
966.768
1104.21
1174.87
632.619
926.451
1162.09
1326.46
1410.86
800.36
1170.38
1466.08
1671.82
1777.33
1041.4
1519.41
1899.49
2163.12
2298.16
1370.28
1992.11
2483.01
2822.43
2996.37
505.739
741.261
930.555
1062.81
1130.78
562.306
823.764
1033.65
1180.16
1255.42
672.379
983.913
1233.33
1407.1
1496.27
842.398
1230.5
1539.95
1754.98
1865.21
1080.8
1574.53
1966
2237.23
2376.2
1396.4
2026.26
2521.91
2864.42
3040.2
444.389
651.825
818.867
935.766
995.907
431.675
633.234
795.621
909.299
967.784
501.672
735.57
923.739
1055.31
1122.97
493.772
724.05
909.385
1039.01
1105.67
615.076
901.09
1130.69
1290.95
1373.27
618.192
905.725
1136.63
1297.82
1380.61
794.657
1162.61
1457
1661.95
1767.07
819.58
1199.13
1502.84
1714.28
1822.69
1050.66
1534.01
1918.89
2185.96
2322.73
1103.14
1610.69
2014.8
2295.14
2438.61
1387.38
2019.54
2519.66
2865.49
3042.47
1452.14
2114.57
2638.78
3001.05
3186.22
1799.02
2599.85
3225.59
3657.62
3880.3
2333.06
3337.69
4111.53
4648.62
4931.22
2998.81
4216.21
5135.88
5788.57
6151.87
3827.29
5223.21
6251.5
7026.95
7519.37
4703.78
6152.69
7191.58
8065.16
8747.16
5295.07
6716.19
7713.77
8628.72
9444.76
1795.04
2589.33
3208.13
3635.39
3856.08
2276.12
3254.48
4006.87
4528.32
4802.14
2833.76
4000.3
4882.99
5502.58
5839.49
3433.92
4764.14
5751.84
6463.78
6875.59
3977.83
5411.79
6456.45
7238
7727.77
4305.87
5778.19
6835.58
7648.02
8185.67
4879.34
3217.24
871.672
667.716
767.305
664.199
813.807
4472.78
4292.03
2776.43
3518.88
1692.52
2255.59
1417.74
1576.87
1325.36
4171.07
2333.16
1533.81
1361.53
1711.2
1486.27
1162.29
1113.71
1066.79
935.837
1258.4
1135.45
4462.31
2722.97
3099.28
2000.61
1664.21
2316.74
1194.11
947.217
1315.89
9913.56
9983.79
10158.2
11364.4
18515
7113.69
8137.96
8877.11
9938.51
11537.6
2299.09
3300.65
4075.77
4612.44
4892.69
1772.84
2568.47
3192.45
3622.89
3843.78
2037.27
2950.98
3665.95
4157.32
4408.49
1765.96
2563.35
3190.21
3622.09
3842.87
2155.67
3112.44
3857.73
4370.64
4634.28
9836.34
10902.2
11483.2
12746
19719.6
9646.93
10918.2
11694
12840.5
14907
6601.06
8294.78
9473.81
10549.5
11575
8394.15
10089.4
10986.9
11924.8
12758.1
4320.44
5934.58
7106.59
7934.55
8406.87
5570.44
7329.62
8552.27
9473.4
10074.3
3680.08
5165.96
6270.52
7030.3
7435.76
4065.88
5655.5
6819.64
7621.72
8055.65
3458.96
4890.14
5962.86
6695.39
7078.65
9126.2
10124.6
10723.9
11995.2
18868.2
5656.05
7291.33
8461.81
9493.27
10431.9
3943.31
5469.37
6596.69
7398.5
7858.87
3522.48
4928.2
5981.52
6729.48
7152.46
4326.06
5878.59
7018.14
7882.64
8455.53
3805.13
5253.25
6330.09
7123.48
7605.59
3021.61
4255.81
5191.3
5855.62
6225.53
2916.39
4145.47
5082.78
5734.92
6082.71
2811.32
4028.75
4962.57
5601.34
5930.58
2473.75
3560.72
4401.79
4978.73
5275.37
3286.81
4653.86
5685.65
6397.27
6774.92
2976.28
4235.57
5195.21
5858.75
6209.42
9368.6
9838.7
10172.1
11404.7
18408.9
6246.15
7505.7
8409.75
9452.13
10751.6
7289.33
8729.91
9592.12
10816.3
13198.1
4900.41
6400.45
7485.82
8423.27
9194.81
4196.06
5682.32
6776.17
7627.44
8202.45
5588.24
7165.8
8305.28
9358.28
10361
3107.26
4381.16
5346.23
6028.15
6404.81
2497.75
3583.98
4422.3
5000.43
5300.99
3406.2
4769.58
5794.47
6525.51
6939.99
8932.22
8444.63
7586.45
6363.35
4657.08
1831.04
18990.1
19329.1
21889.3
22599
18587.5
19688.5
20907
20227.6
15615.5
19357.5
16267.4
19908.2
18656.7
16808.2
26167.3
18242.3
18439.7
20642
21106.3
17573.6
18657.6
19972.2
19500.5
15539.6
23370.9
16102.9
23226.6
18826.6
20446.3
28066
17395
17462.8
19048.2
19264.3
16807.8
18297.4
18715.5
18746.2
17805.8
20640.3
18566.9
20637.4
20431.3
22503.6
25229
16584.5
16671.7
17588.9
17644.1
16338.7
18063.8
17429.3
17737.1
16653.5
18013.7
17385.8
17545.2
18641
20186.9
21753.5
15739.3
15860.6
16584.4
16554.5
16003.4
17879.3
16573.1
17066.1
15738.1
14828.9
16496.3
14227.4
17103.5
16959.5
17922
15357.9
15523
15913.8
15850.7
15594
17140.5
16019
16433.2
15002
12720.2
15563.5
12455
15886.7
14867.2
16196.3
21735.8
20885.6
22821.7
23989.5
20109.5
20064.3
21238
20254.3
19168.4
14238
19115.2
14307.5
16972.6
15375.4
18530.6
20484.3
19868.9
21068.4
21836.3
19393.8
19515.9
20014.9
19190.1
17733.9
13761.5
17710.4
13852
15529.9
13844.5
17125.3
18831.2
18466.4
18958.2
19332.1
18189.5
18326.9
18429.5
17929.6
16792.3
13441.1
16584.2
13179.4
14871.7
12642
16749.6
17244.9
17036.3
17314.2
17482.7
16852.9
16930.8
17126.9
16731
15767
13753.8
15657
13439.1
14199.8
12642
16941
16391.7
16253
16382
16462.2
15945.6
16019.3
16336.1
16083.8
15469.7
14693.1
15398.2
14540.5
14216.1
13079.3
17390.7
15780.1
15652.7
15833.3
15883.7
15404.9
15664.5
15766.4
15657.5
15320
15281.7
15308.6
15199.4
14258.7
13551.8
18012.6
11676.9
6626.58
19221.6
12622.1
21013.8
15535.9
32954.7
40876.8
43355.6
53067.6
28069.7
24361.6
17802.7
14142.7
8669.85
5771.59
19883.6
20286.1
17145.3
20115.7
26871.6
23926.6
31048.2
25065.5
8194.38
5889.96
4547.47
3394.28
9969.67
8124.85
6074.51
4932.44
18240.8
18899.9
18603.1
15644.8
14440.6
11328.8
11365.4
12917.8
18307.7
18230.5
38472.9
39780.8
27212
28044.8
15580.6
13138.1
16939.7
12072.6
7879.07
8099.07
6363.06
8978.55
3300.83
4002.92
8879.06
12235.1
5306.53
6208.58
9820.51
16588.7
6817.97
11197
2595.19
6649.43
2159.49
4957.47
17862.7
22078
18467.9
22007.2
21841.3
22038.7
22279.8
21778.4
15738.8
21342
16145.2
21065.6
18206.1
21868.2
18207.6
21823.4
22484.8
21512.6
22418.1
21313.8
14551.4
21438.2
14052.7
21518
17823.8
20977.1
22504.5
31478.3
18878
24244.1
22304.6
34216.3
16899
18454.1
22591
30249.6
16720.7
17263
22833.5
30014.6
5301.9
6979.42
13572.5
23867.4
6679.41
7606.82
17710.8
27361.7
8301.2
8389.78
22419.1
30488.7
24609.2
26332.1
20914.7
20288.7
29558.7
26487.4
25089
21337.5
18564.5
33817
24151.4
23906.9
21379.5
21366.1
38598.5
2034.87
2463.1
4364.57
10102.4
2950.02
3344.5
6156.02
11423.9
4387.47
3716.71
8349.04
13071.3
26178.4
25789.3
23670.4
23212.9
20381.3
18598.4
15477.5
13659.4
10969.7
15303.3
23859.5
22981.6
24112.4
23668.6
21031.2
19668.9
17474.4
15642
11685.4
15434.2
23916.5
26912.3
23856.9
27588.5
23065.3
23855.1
22525.3
24038.8
21808.3
22178.1
21628
21529
23672.7
27709.9
23567.8
27688.1
21871.6
24342.4
21694.3
24290
21892.4
22127.9
21888.6
22115.8
18398.9
17489.5
11877
13223.8
18275.4
17032.8
11699.6
13283.9
18653.2
17435.4
12134.6
13273.3
18728.5
17258.5
12511.4
13279.7
1661.65
1116.67
770.391
969.149
660.03
613.664
2351.92
1395.36
1051.51
1923.35
1539.2
1321.37
2715.55
2242.48
2242.19
3368.8
2744.24
2458.79
24542.2
22059.2
20335.7
22635.5
20894.3
19517.3
16273.7
15038.4
14358.4
11098.8
9570.41
8919.55
5138
3766.67
3180.78
22220.2
20468.8
18999.8
22872.5
20735.1
19090.9
16990.9
14512.3
13110.3
11116.1
8836.78
7905
5462.8
3746.56
2994.98
27221.5
26610.4
29669.6
26600.2
30545.5
26607.1
36903.4
28042.1
20902.1
21330.7
20615.9
19254.1
23621
22232.3
23204.1
19822.5
23004.6
22817.9
21189.8
22640.8
28183.2
25337.4
28032.3
28470.9
30466.5
31518.1
23340.9
24229.4
20897.4
20289.5
25399.7
26067.9
16523.6
8923.94
15453.2
9878.63
16746.3
8995.48
15399.9
9807.81
16530.1
9043.56
15367.5
10220.2
14957.4
10693.4
15144.5
10607.7
21263
18166.4
21163
18152
23488.8
21199.2
23746
21002.1
20718.9
15156.1
21590.6
14948
21645.6
18072.3
21925.3
17870.2
24370.8
20837.3
24393.6
20573.4
20532.8
15207
20480.9
15115.2
13599
9085.86
12008.2
7723.54
12664.6
8142.9
11535.2
7219.29
13940.2
9653.83
12205.5
7959.01
13962.6
10001.4
12176.5
8017.03
2579.64
1338
4737.68
2530.32
2770.05
1667.93
5066.32
3062.65
3412.91
2525.25
5614.58
4023.2
13173.7
20385.7
9506.34
9123.99
6501.96
19954.6
13909.7
8174.51
8216.03
5355.53
20765.1
16356.5
13014.6
10141.3
6333.42
707.239
528.291
1433.33
1058.16
1034.09
715.279
2066.51
1644.71
1801.57
1401.96
3019.56
2461.29
20243.7
19572.3
13734.1
13154
8942.54
9008.23
7534.07
6923.8
4581.62
3763
18998.7
17265.7
14739.9
12937.8
11489.3
10205.3
8750.67
7906.09
5596.71
5534.14
15111.5
12232.3
15205.3
11940.8
18156.6
15071.7
18118.8
14864.3
12743.2
10342.5
12363.5
10379.3
15210.4
11756.9
15117.6
11739
18050.8
15148.2
17878.8
15104.4
12972.8
10181.6
12951.2
10316.7
9940.14
8421.2
6600.37
6951.62
9579.21
8239.38
6297.16
6589.93
10362.1
8586.18
6768.45
7358.03
10608.1
8585.59
7034.17
7464.67
1742.06
1534.17
1271.57
7610.75
4063.22
3318.44
1721.78
1699.25
1510.5
8310.38
4859.79
4122.28
2369.76
2656.17
2723.19
9206.3
6099.26
5434.72
18382.2
17121.5
16218.8
12599.2
12173.2
11901.3
9207.94
9064.79
9040.76
7909.32
7627.9
7430.08
10501.9
7548.42
6820.49
15687.5
14396.6
13528.5
11705.6
10848.1
10358.9
9752.9
9016.41
8597.65
9387.83
8306.34
7677.16
12782.1
8523.37
7650.66
4931.9
3104.58
2189.71
1800.43
5554.64
3373.81
2310.5
1843.99
4955.45
3100.7
2194.29
1813.9
5677.27
3445.2
2358.16
1868.65
4940.66
3066.39
2200.06
1809.9
5791.61
3488.24
2411.89
1874.28
6237.32
3696.21
2463.47
1941.57
6425.77
3841.16
2540.97
2012.78
5269.88
3265.52
2288.66
1834.66
4292.67
2854.25
2094.84
1761.99
4615.64
2952.83
2134.25
1711.47
3946.04
2687.65
2010.36
1692.12
5709.24
3502.1
2397.45
1914.95
4500.45
2976.28
2148.83
1816.94
5957.8
3663.39
2475.74
1974.43
4591.94
3063.87
2194.77
1850.31
3706.27
2657.72
1992.8
1708.51
2372.94
2120.62
1751.71
1605.91
3716.59
2643.55
1988.98
1704.91
2483.27
2150.46
1761.82
1615.63
3806.38
2640.93
1999.6
1714.34
2814.45
2247.97
1800.92
1655.19
3756.99
2573.22
1962.3
1747.93
3099.21
2315.74
1851.06
1647.01
3482.61
2493.84
1914.81
1666.95
1024.47
1684.61
1390.44
420.661
-491.889
1440.6
1242.53
444.234
1265.6
1764.66
1421.76
443.926
-194.169
1530.83
1270.6
453.961
1717.86
1905.52
1470.12
442.469
313.869
1680.45
1310.99
459.126
2271.91
2073.24
1541.49
480.498
855.951
1846.72
1369.46
478.879
2638.71
2226.86
1630.07
559.797
1004.25
1972.84
1423.89
496.149
2816.53
2396
1669.65
532.43
696.612
2107.05
1525.22
526.58
2746.57
2321.07
1639.6
532.718
656.791
2044.71
1473.92
508.538
2838.58
2449.24
1693.2
496.486
638.957
2160.77
1559.44
529.81
2899.33
2505.44
1738.59
507.237
742.516
2219.75
1601.21
542.88
1604.13
1199.11
811.101
465.392
151.357
1586.54
1196.59
811.651
465.988
151.562
1625.37
1209.55
816.064
467.657
152.012
1612.89
1209.93
818.306
469.104
152.476
1664.03
1223.67
822.234
470.413
152.804
1644.3
1225
825.797
472.632
153.517
1668.71
1242.19
835.696
477.581
155.011
1708
1266.9
849.791
484.636
157.142
1703.33
1240.63
831.121
474.713
154.089
1818.01
1261.32
836.951
476.855
154.671
1711.58
1236.24
826.834
472.321
153.338
1815.58
1253.84
832.208
474.431
153.926
1718.86
1255.72
839.982
479.175
155.444
1851.15
1275.97
845.017
480.886
155.896
1757.95
1279.71
853.245
485.759
157.434
1892.67
1297.37
856.501
486.576
157.622
1648.41
1205.25
811.099
464.904
151.172
1733.11
1212.12
811.301
464.62
151.063
1668.54
1213.51
814.799
466.549
151.642
1749.34
1218.37
814.127
465.884
151.426
1707.02
1226.6
820.366
469.017
152.344
1782.33
1229.11
818.932
468.05
152.042
1769.34
1241.6
825.998
471.438
153.027
1821.9
1240.63
824.405
470.556
152.75
1828.33
1249.33
829.194
472.882
153.445
10021
15452.4
10544.3
15785.8
11227.8
16128.9
11674.7
16321.3
11168
15645
10310.5
11621.8
10333.7
12203.4
10362.3
11511
10539.7
11645.9
8921.57
1519.71
324.305
72.7354
12.8816
9921.7
2822.99
685.225
155.463
27.5199
9009.04
1516.57
321.774
71.9081
12.7006
10007.9
2813.06
680.511
153.684
26.9749
9074.19
1506.06
316.918
70.5301
12.4325
10054.1
2796.6
673.047
151.463
26.5482
8967.86
1456.67
303.837
67.46
11.8849
9911.97
2732.01
655.233
147.229
25.782
8480.79
1342.78
279.519
62.2586
10.9945
9364.93
2586.2
622.354
140.254
24.5991