/*--------------------------------*- C++ -*----------------------------------*\
| =========                 |                                                 |
| \\      /  F ield         | OpenFOAM: The Open Source CFD Toolbox           |
|  \\    /   O peration     | Version:  2306                                  |
|   \\  /    A nd           | Website:  www.openfoam.com                      |
|    \\/     M anipulation  |                                                 |
\*---------------------------------------------------------------------------*/
FoamFile
{
    version     2.0;
    format      ascii;
    arch        "LSB;label=32;scalar=64";
    class       volScalarField;
    location    "1.9";
    object      gradTx;
}
// * * * * * * * * * * * * * * * * * * * * * * * * * * * * * * * * * * * * * //

dimensions      [0 -1 0 1 0 0 0];

internalField   nonuniform List<scalar> 
5712
(
-6739.14
-8613.85
-15992.6
-23362.7
-23834.9
-41137
-18308.7
-46639.8
-14908.4
-32758.1
-22296.7
-33921.1
-20003.1
-26239.3
-8798.39
-10063.1
-15051.8
-17246
-19438
-19274.5
-15284.1
-18874.7
-22523.5
-20198.7
-5488.37
-4133.07
-6824.74
-4596.47
-12725.2
-10192.1
-21716.3
-15744.8
-16818.4
-17488.5
-18688.7
-17859.3
-6584.51
-5141.8
-39777.1
-53246.8
-25700.7
-31549.3
-53455.6
-69366.4
-27646.5
-31652
-29508.2
-41679.3
-25760.2
-34133.4
-15087.6
-24306.1
-2905.08
-980.222
-3057.29
-1102.94
-8768.7
-3542.69
-12015.6
-4424.71
-8566.94
-3283.78
-9087.22
-2915.95
-15474.8
-4926.4
-19959.7
-6737.96
-24347.4
-12104.8
-22290.6
-13208.5
-22795.2
-14745
-20051.9
-15059
-17556.4
-10432.8
-17565.5
-8967.01
-23000.9
-14687.7
-23052.5
-14819
-21183.3
-15931.2
-21439.3
-15996.7
-18958.6
-12034.3
-19634.4
-12326.4
-17952
-7789.05
-8307.41
-10138.4
-18024.4
-8521.36
-7261.33
-10294.2
-19007.2
-7746.65
-9405.89
-10201.4
-19948
-7930.86
-10225.3
-10650.7
-3763.71
-4113.26
-1266.96
-2491.82
-11006.9
-11639.6
-4266.12
-7602.79
-14097.5
-15648.2
-6836.38
-11644.1
-12294.5
-998.543
-13698.5
-16979.3
-9262.7
-655.734
-7405.24
-12359.7
-19954.5
-13986.4
-10031.2
-12214.6
-10722.3
-9293.66
-14598.8
-3603.42
-2960.91
-2062.55
-2043.8
-10143.7
-8522.34
-6137.69
-5831.62
-12647.2
-10647.9
-8014.86
-7178.67
-5826.39
-7438.61
-12066
-12527.5
-14183.6
-12897.3
-16004.7
-13898.6
-10916.7
-9190.54
-9116.55
-9548.82
-12052.8
-9436.55
-11010.6
-7944.44
-9561.15
-6533.37
-11201.9
-7317.71
-10302.2
-4717.74
-8865.98
-9558.54
-12632.2
-16419
-13905.4
-20205.7
-7070.42
-7805.5
-9137.37
-2813.16
-7909.21
-15201.3
-7507.71
-16315.7
-13771.6
-24954.9
-14013.6
-26504.6
-5999.11
-13091.4
-5459.62
-13968.8
-8302.8
-6231.41
-11582.4
-4551.31
-8512.9
-1579.63
-10081.2
-664.106
-7989.21
-9383.18
-12139
-5593.13
-6617.26
-11078.9
-10750.4
-7348.85
-2343.68
-2058.97
-1829.39
-1685.58
-1541.55
-1371.91
-6926.6
-5646.7
-4861.11
-4467.53
-3567.32
-3077.25
-8448.25
-7242.21
-6669.93
-5370.32
-4345.52
-4090.57
-6505.37
-5711.78
-5555.61
-10897.5
-8210.99
-6882.74
-10321
-7558.34
-6092.79
-10823.3
-8478.25
-7342.02
-6800.52
-4442.96
-3444.77
-15676.6
-13466.8
-11593.9
-10123.4
-8358.84
-6885.01
-9047.15
-6967.37
-5506.49
-7642.26
-5466.77
-4151.78
-7933.47
-4386.57
-2442.14
-10446.6
-14133.7
-8275.67
-10675.6
-11289.3
-16563.6
-10097.4
-14674.2
-29.6252
-720.171
515.152
-99.298
-2960.6
-3337.5
-1227.84
-655.893
-684.919
-2391.8
-9427.87
-13748.8
-6654.36
-3677.59
-9972.17
-9900.72
-15413.5
-16981
618.697
4177.47
-7599.26
-7159.88
-7230.49
-5575.13
-1019.28
-539.067
-668.569
-272.894
-1964.02
-174.643
365.721
867.38
-9232.35
-2359.44
-6260.82
-1613.01
-9076.13
-2758.09
-10990.1
-3525.47
-8865.32
-11946.3
-8193.43
-11647.3
-14306.5
-15113.2
-13649.2
-14304.4
-5632.07
-9380.46
-6507.83
-9322.3
-8694.73
-11217
-9591.53
-11328.7
-14221.1
-14045.3
-14889.5
-14100
-5685.93
-9074.46
-6187.98
-9238.83
195.203
-1280.63
-7343.99
-4542.01
756.836
-868.237
-6803.44
-4009.28
-266.835
-1544.55
-7507.99
-4954.19
-719.711
-1815.8
-7543.81
-5127.36
707.72
813.282
-158.231
-2.98445
2962.06
2991.62
244.121
416.18
656.315
2041.82
-1621.79
-954.852
10270.7
9631.63
5593.09
4319.82
494.126
10544.9
10803
4328.52
6408.04
897.489
-10315.8
-8060.04
-7116.72
-6640.37
-3980.26
817.818
750.014
48.9534
-46.0388
2588.24
2514.96
153.198
-78.2492
2612.19
3121.22
-622.807
-917.836
5133.79
2292.81
8138.1
5061.25
3645.84
2746.28
4132.78
3561.92
-359.336
-1266.72
-3788.03
-2388.4
-1037.1
1010.98
-972.442
774.288
-1637.59
-314.241
-1987.99
-2261.95
-5203.72
-4745.45
-9911.54
-5967.61
-8133.99
-8165.21
-12347
-9989.13
-7768.5
-4547.53
-3855.58
-3818.15
-11690.4
-5146.64
-12859.6
-5772.43
-13772.6
-10195.2
-14697.9
-10934.9
-9438.2
-3693.34
-10575.8
-4286.2
-6069.92
-4775.3
-4611.5
-6827.43
-3903.12
-4382.38
-3931.83
-6328.53
-7017.04
-4711.77
-5216.07
-7842.85
-8552.49
-5120.87
-6573.06
-8096.66
752.903
797.092
893.023
32.2593
280.084
312.901
2738.72
2883.99
2873.18
233.397
801.83
802.173
3475.66
3841.93
3927.26
-530.755
782.968
1051.71
1207.55
1025.77
723.049
3678.94
3741.99
3478.86
3008.11
3375.4
3310.42
3726.33
3970.66
3860.85
-1249.26
354.641
472.39
-3475.55
-1986.35
-1063.38
965.58
2048.52
2625.87
946.423
2321.38
2918.83
436.62
1918.21
2342.78
-2182.31
492.589
807.453
30.1778
38.4401
47.3005
70.8655
264.042
146.843
120.763
114.846
17.2069
75.4273
172.035
260.614
431.119
269.907
301.774
317.068
-206.896
29.9313
247.248
467.243
165.619
219.601
276.957
309.9
39.3841
131.169
129.855
125.709
-206.161
-7.33173
112.333
187.627
-907.89
-187.521
82.2973
273.626
-1418.97
-330.737
-10.7439
476.309
-622.957
-76.5276
164.615
413.062
-1162.49
-250.412
-28.4878
414.01
-971.43
-225.311
110.894
352.161
-1594.21
-394.423
-13.7159
561.732
-1087.15
-298.669
103.392
422.631
-1719.73
-452.049
-34.3819
587.213
11.9782
22.9554
41.7271
89.6951
41.1075
31.7585
24.2004
81.7662
79.224
78.5127
131.411
244.068
172.291
107.197
76.7569
221.796
-376.992
-45.4619
140.49
414.404
-159.978
31.4303
99.1982
390.985
-58.1211
118.749
212.479
416.838
-1.41193
96.2887
83.4812
394.231
-994.246
-189.997
10.1157
548.677
85.911
44.3388
31.0153
62.8442
159.617
64.4829
33.3263
29.6586
178.13
105.612
66.6011
160.62
408.151
171.536
83.253
75.8496
112.273
118.069
91.6573
263.74
518.751
241.492
125.584
119.412
-73.7377
108.277
115.54
367.459
413.52
261.453
148.977
151.42
-507.695
16.9653
51.3044
348.584
132.208
225.671
135.386
153.845
-1154.29
-116.311
34.7936
400.959
-365.431
56.2009
83.1201
141.021
-885.035
-31.4545
45.7072
372.97
-207.474
132.196
113.398
154.004
-1401.54
-219.496
1.81248
435.608
-506.267
-17.874
53.1091
131.532
-1587.15
-321.033
-43.7379
429.412
-634.847
-96.9914
13.7925
113.404
31.086
13.3725
6.65912
3.7668
2.63988
40.8523
20.4351
10.9171
6.36023
4.49719
74.2998
31.1176
15.4496
8.78309
6.20455
92.3174
45.7654
24.5036
14.3592
10.1938
98.6073
38.9949
19.1169
10.8591
7.6949
124.046
60.7345
32.624
19.2421
13.7202
64.8071
31.0497
16.6191
9.82657
7.0144
46.285
18.3001
8.93924
5.12545
3.6192
98.5905
39.852
19.9578
11.5
8.13008
47.108
16.3341
7.68901
4.32713
3.03215
103.983
46.274
24.2673
14.2127
10.1169
44.5443
16.2517
7.88931
4.47872
3.13549
76.0213
26.1014
12.087
6.78102
4.76017
44.6951
14.6041
6.7407
3.79396
2.66673
66.5682
16.9886
6.31733
3.21662
2.16794
36.808
8.05367
2.72752
1.32921
0.877438
25.9841
10.1117
4.83944
2.67473
1.855
18.7961
8.01033
4.00936
2.24829
1.56512
63.5017
25.3315
12.4341
6.9749
4.88327
48.5364
21.0509
10.7187
6.06752
4.23995
89.1073
31.2688
14.7021
8.11991
5.66488
65.7904
28.9388
14.9077
8.47273
5.96467
79.9268
35.5521
18.7221
10.904
7.76468
44.6619
21.9763
11.7289
6.75952
4.81123
41.3466
19.5283
10.5409
6.21534
4.43069
-308.538
-442.353
-674.266
-1075.92
-655.077
-1332.33
-91.2614
-1044.89
572.791
-72.3107
-673.623
-1186.7
336.726
252.054
-1130.99
-1817.74
-1458.52
-2093.72
-646.967
-150.778
-34.0414
-7.53414
-1.89376
-209.644
-96.4561
-13.5602
-3.6176
-1.58837
-1986.69
-460.779
-104.386
-22.9881
-5.78585
-497.988
-135.517
-33.1091
-6.98115
-1.88904
-3333.37
-774.638
-175.953
-38.8761
-9.76336
-793.281
-230.292
-56.046
-13.0338
-3.2822
-4462.63
-1040.03
-237.199
-52.5682
-13.218
-920.512
-289.235
-72.6645
-17.0873
-4.29266
-5559.35
-1308.37
-300.47
-66.9263
-16.8989
-1013.79
-350.975
-90.7816
-21.6246
-5.49605
-6554.83
-1589.88
-370.183
-83.1591
-21.0944
-1591.36
-490.113
-121.483
-27.9879
-7.03019
-6115.4
-1478.38
-342.721
-76.6689
-19.3857
-1225.84
-413.765
-105.848
-24.891
-6.26226
-6751.56
-1639.74
-382.495
-86.0597
-21.8641
-1809.66
-538.493
-131.438
-29.8502
-7.47736
-7030.92
-1692.96
-395.429
-88.9267
-22.5791
-1880.07
-560.956
-138.113
-29.1453
-7.72295
-511.958
-7038.44
-6422.71
-2288.35
1667.19
2834.96
7891.67
11536.4
1786.51
8475.93
-1673.22
2598.16
2516.64
4989.53
9442.71
13369
14276.4
17926
5830.61
7552.32
-19916.8
-14372.3
-4653.21
-3605.07
-2585.96
-3682.49
-3459.69
-12209.3
-11575
-9915.96
-10651.5
-8739.85
-6277.9
-8223.02
-5405.22
-4579.67
-5548.78
-3809.92
-19799.2
-10239.8
-3578.06
-6118.5
-8363.86
-5820.44
-6322.98
-4694.21
-2833.73
-4003.3
-4277.89
-4630.72
-19577.9
-12808.7
-12155.3
-8763.94
-8675.31
-9142.79
-3872.6
-5092.42
-6516.4
-14123.1
-12151.3
-10136.9
-9282.72
-7891.31
-9312.29
-6359.08
-4903.45
-3729.4
-1900.17
-4099.89
-3390.95
-2533.67
-1574.47
-537.626
-3215.17
-2686.88
-2017.78
-1251.66
-424.694
-2293.62
-1903.38
-1418.51
-874.102
-295.368
-3289.15
-2750.67
-2064.2
-1277.87
-432.638
-3065.76
-2544.04
-1898.65
-1173.01
-397.37
-7807.72
-5939.99
-4620.21
-4241.4
-4529.59
-6294.99
-4600.14
-3254.22
-2682.11
-1863.27
-6184.61
-3712.76
-2559.78
-1769.02
-842.383
-5458.83
-3660.76
-2421.53
-1750.22
-1026.24
-4077.06
-2538.07
-1573.81
-1082.86
-527.634
-4958.65
-3693.39
-2542.65
-1514.54
-519.684
-5593.67
-3592.65
-2343.32
-1397.87
-520.224
-3547.66
-2123.86
-1273.21
-689.175
-232.113
-3766.74
-2900.09
-2036.03
-1214.64
-409.018
-4422.13
-3294.36
-2240.99
-1302.77
-432.046
-3167.82
-2459.75
-1732.55
-1030.09
-343.778
-13038.8
-9880.84
-7921.31
-6974.75
-6563.79
-7519.12
-5430.35
-3953.25
-2665.59
-1189.93
-2971.14
-2318.19
-1655.04
-1006.21
-345.94
-5169.03
-4116.29
-3003.07
-1862.74
-651.745
-6834.27
-5344.96
-3915.02
-2506.32
-944.196
-4939.51
-3965
-2925.82
-1838.42
-650.25
-5458.58
-4443.19
-3299.79
-2065.25
-719.092
-4075.19
-3321.44
-2454.84
-1519.16
-520.181
-2439.17
-1960.91
-1422.11
-861.514
-289.468
-3518.49
-2893.34
-2141.55
-1315.7
-444.76
-3631.82
-2886.28
-2081.37
-1263.44
-428.167
-4001.47
-3241.93
-2379.92
-1463.57
-499.085
-13550.8
-11159.2
-9249.01
-8158.99
-7022.45
-8866.63
-6325.94
-4839.72
-3558.17
-1797.15
-8931.43
-7041.28
-5325.76
-3903.32
-1881.25
-6870.89
-5192.55
-3886.03
-2627.38
-1064.67
-7214.35
-5746.15
-4271.43
-2757.72
-1031.68
-7111.28
-5333.49
-3965.96
-2669.27
-1068.39
-3315.04
-2671.5
-1965.22
-1221.77
-424.227
-4478.84
-3691.15
-2743.5
-1694.63
-575.478
-5593.28
-4522.22
-3338.14
-2080.27
-722.14
-5680.37
-11574.4
-12044.9
-33023.3
-11856.7
-44151.6
-6474.31
-15716.3
-11868.4
-9153.23
-19742
-16444.4
-11816.9
-11089.9
-22122.6
-17479.1
-4183.9
-3110.96
-8104.33
-5574.96
-9374.28
-7066.63
-25174.2
-18617
-15439.2
-11701.4
-15874.7
-9430.19
-1205.72
-3822.23
-41100.8
-53787.8
-24834.7
-31400.1
-54273
-69700.8
-26694.5
-31422.3
-30646.9
-42265.7
-24969.6
-34074.8
-16593.5
-25021.2
-2002.29
-528.591
-3519.17
-1201.18
-6811.47
-3045.21
-13821.9
-4993.81
-2991.81
-1701.04
-7488.2
-2355.93
-15493.2
-4869.8
-20139.2
-6787.24
-16705.8
-8663.33
-19283.9
-11449.7
-15175.4
-10860.9
-17069.7
-13200.4
-15436.4
-9031.16
-12204.5
-6315.36
-21838.4
-13896
-22761.6
-14602.5
-19995.5
-15123.7
-21121.6
-15776.9
-18177.6
-11386.7
-19449.5
-12147.6
-16930.2
-7489.63
-7382.1
-9765.04
-15144.9
-7660.66
-5540.44
-9610.62
-18732.5
-7669.5
-8974.34
-10018.4
-19915.1
-7923.78
-10103.6
-10597.5
-1151.45
-1039.06
-280.724
-1242.76
-4678.91
-4847.88
-2937.66
-5847.3
-2637.1
-3286.66
-4575.06
-8656.75
-12178.5
-9695.89
-9491.16
-11889.8
-7878.99
-7622.54
-8200.06
-7028.75
-13778.4
-12068.2
-11668.1
-9829.51
-6873.91
-5935.01
-13026.1
-1122.61
-841.32
-629.346
-706.524
-4353.46
-3451.89
-3698.42
-3260.31
-647.976
503.383
-4375.32
-3438.24
-10176.5
-10806
-9527.66
-8725.75
-7165.92
-5204.18
-9402.41
-7480.28
-8494.65
-6653.01
-11628.4
-11789.7
-9985.3
-7751.21
-7421.2
-4993.42
-6578.86
-4128.53
-9887.12
-5993.32
-9360.17
-5034.9
-8357.8
-9488.29
-13117.1
-17413.4
-13840.6
-20200.1
-6433.82
-7607.56
-7792.47
-2831.9
-7715.16
-15074.6
-7459.51
-16264.8
-13688.8
-25064.9
-13983
-26488.6
-5752.38
-12935.5
-5398.98
-13919.2
-7838.88
-6124.39
-11396.3
-4582.72
-7524.87
-1750.31
-9801.12
-1186.17
-7801.59
-9290.08
-12053.3
-5587.66
-6566.58
-11046.9
-10726.3
-7338.63
-826.264
-767.12
-566.713
-654.248
-2630.94
-1925.38
-2393.55
-2178.84
1072.59
568.661
-2802.26
-3104.4
-10682.3
-10110.1
-7739.89
-6654.64
-4139.56
-3474.03
-5871.1
-4834.99
-5596.78
-4080.22
-18321.6
-15984.4
-8034.66
-6791.81
-6144.77
-4632.86
-5112.85
-3248.1
-5489.2
-2353.07
-5617.2
-9245.61
-4915.73
-9387.22
-8412.7
-10487.6
-9461.07
-12879.4
-984.925
-706.83
-756.726
-638.834
-3629.83
-2570.2
-2959.71
-1634.81
-1345.34
-1629.25
-8335.92
-8941.32
-4669.15
-4213.46
-9408.02
-9764.5
-14543.9
-16734.8
403.891
3998.96
-7367.06
-7158.37
-7109.87
-5611.84
-1057.64
-951.474
-1151.81
-945.789
-1692.41
-1120.25
-557.039
-459.527
-8100.69
-3695.65
-6885.94
-3094.22
-9325.51
-3643.17
-11097.4
-3886.17
-5370.52
-10255.9
-6997.24
-10742.9
-8722.44
-11742.7
-11488.3
-12734
-5190.99
-9161.57
-4684.3
-9122.14
-8199.87
-10840.9
-9444.95
-11228.7
-13308.9
-13385.8
-14628.7
-13921.4
-5571.13
-9006.01
-6165.66
-9228.81
-377.91
-2081.54
-7747.79
-5179.67
-356.229
-2154.47
-7677.56
-4959.53
-694.323
-2107.5
-7730.61
-5343.72
-895.866
-2042.4
-7610.12
-5261.26
-1056.75
-1154.12
-985.634
-1058.69
-2041.5
-2077.99
-1370.27
-1474.11
-8315.51
-7614.56
-3792.13
-3794.56
-3681.32
-5170.51
-3973.94
-175.834
-1696.78
-1253.74
-1356.5
-3569.9
2733.69
-742.844
-13883.4
-11728.6
-10526.8
-9081.56
-5568.16
-1156.67
-1036.05
-1189.59
-1467.1
-2050.44
-1603.3
-1892.67
-2509.68
-7932.77
-7787.26
-4202.99
-5409.01
-5015.13
-6691.61
-3119.32
-5047.42
-4773.89
-5202.43
-1051.88
-1430.8
-2726.97
-4094.78
-9675.08
-7926.93
-7575.12
-5546.41
-6555.7
-4663.9
-5744.08
-4147.27
-4115.72
-4503.02
-8269.55
-8150.57
-11165.1
-7187.57
-10415.2
-11154.3
-13056.5
-10975.4
-9284.73
-5725.7
-6808.2
-6778.56
-12177.1
-5903.55
-12984.3
-5955.04
-13958.7
-10831.8
-14732.5
-11070.2
-10132.2
-4430.53
-10770.4
-4481.37
-7508.85
-5837.56
-5878.75
-8015.5
-6403.83
-6758.63
-5774.38
-8280.26
-7766.06
-5404.73
-5933.47
-8597.91
-8785.87
-5337.76
-6804.77
-8311.73
-827.023
-714.814
-1057.14
-784.496
-1376.56
-1647.94
-1539.86
-1146
-7582.7
-6640.57
-3597.92
-1611.47
-7852.82
-7439.76
-6077.07
-5458.98
-5035.88
-4324.79
-1778.36
-1849.71
-3899.41
-1778.25
-8626.14
-7383.3
-4851.86
-3871.02
-3731.36
-2401.04
-2704.98
-1234.15
-4046.65
-97.1038
-221.693
-100.865
-34.9119
20.9419
-205.464
-126.913
-41.6657
15.0265
-599.988
-263.449
-7.50443
161.883
-536.173
-306.314
-31.1955
112.509
-985.644
-391.886
33.0341
370.99
-966.725
-468.331
-153.716
19.5496
-667.671
-316.004
-154.575
-49.2534
-515.568
-209.736
-17.2043
105.448
-1479.06
-516.749
-128.862
123.322
-1755.94
-499.966
-103.962
457.038
-1416.78
-495.028
-83.2428
245.699
-1593.52
-449.535
-131.133
412.933
-1384.99
-476.816
-42.5176
264.357
-1820.68
-515.666
-87.5861
533.463
-1256.56
-405.309
37.2739
383.69
-1802.43
-498.255
-62.9405
576.463
-206.273
-83.1141
-12.8791
65.4025
-177.404
-63.2275
-27.4264
61.7835
-531.984
-217
-18.1714
171.309
-446.173
-166.328
-70.9752
160.439
-1053.61
-365.452
-11.6287
365.261
-956.934
-317.551
-84.8148
331.333
-1170.22
-429.058
-78.4943
273.731
-883.441
-299.734
-112.178
369.128
-1604.52
-448.629
-115.506
580.821
-128.498
-47.3451
-14.3268
41.018
-59.8878
-32.9115
-14.3182
0.420011
-386.896
-136.98
-60.914
96.5101
-197.14
-98.4411
-52.142
-6.74987
-686.853
-228.191
-93.1247
173.694
-399.013
-172.559
-81.4511
-5.40652
-1044.38
-328.712
-117.228
264.302
-695.696
-254.342
-108.209
-0.642973
-1374.88
-395.123
-187.538
221.251
-935.759
-307.087
-145.027
-19.6572
-1835.68
-512.039
-201.514
274.859
-925.295
-285.776
-120.107
10.2987
-1769.48
-501.921
-228.647
226.858
-1024.09
-318.115
-139.964
-9.5152
-1812.65
-470.954
-151.442
356.076
-829.371
-231.18
-75.4681
52.3496
-1721.69
-405.821
-96.0346
402.187
-735.701
-166.216
-28.4584
87.5798
-4.56424
-8.51111
-6.05866
-3.93814
-2.90521
-22.9681
-16.8777
-10.4948
-6.57143
-4.80357
-8.4712
-19.4122
-13.8514
-8.95762
-6.56093
-49.8612
-37.4208
-23.2688
-14.5082
-10.5753
-2.97476
-23.3193
-16.9937
-11.0016
-8.03635
-65.3941
-49.2534
-30.4086
-18.8321
-13.6738
-31.9154
-24.7075
-15.3039
-9.4558
-6.86033
-3.29977
-10.3515
-7.49648
-4.81914
-3.55146
-13.2305
-25.504
-17.5585
-11.1685
-8.18051
5.34998
-8.44336
-6.57111
-4.29218
-3.16957
-38.6316
-35.5287
-22.3856
-13.9231
-10.1168
-0.00738035
-9.82908
-7.05914
-4.54576
-3.35526
11.6653
-11.9302
-9.81877
-6.47079
-4.78125
8.3289
-6.72577
-5.50408
-3.60699
-2.66273
37.116
-0.499627
-3.80247
-2.9369
-2.29499
24.6236
0.765271
-1.49568
-1.2428
-0.993744
0.597037
-5.94435
-4.51403
-2.99103
-2.22154
-4.86247
-5.94071
-3.96969
-2.56052
-1.89029
-5.90704
-16.9419
-11.9354
-7.74496
-5.70009
-17.4963
-16.9924
-10.9033
-6.94208
-5.10445
10.135
-18.1732
-13.9229
-9.19086
-6.78624
-29.5461
-24.9558
-15.5949
-9.86711
-7.20708
-35.8316
-29.6929
-18.2508
-11.3486
-8.22657
-33.9896
-21.0729
-12.4801
-7.77772
-5.62682
-25.6717
-17.261
-10.2124
-6.26513
-4.53772
-52.2521
-201.535
-81.7475
-511.852
-4.14237
-701.762
307.877
-619.938
590.296
-47.2301
-751.635
-1263.21
173.485
-9.32767
-1167.81
-1843.02
-1468.44
-2099.15
-614.449
-145.591
-33.0435
-7.32877
-1.84374
-161.547
-89.1588
-12.4424
-3.43483
-1.54335
-1898.5
-446.046
-101.49
-22.3882
-5.63887
-387.019
-118.622
-30.5048
-6.59065
-1.81926
-3198.83
-751.048
-171.248
-37.8986
-9.5249
-670.875
-210.748
-52.9031
-12.5189
-3.18655
-4309.14
-1011.17
-231.285
-51.3283
-12.9159
-843.577
-275.168
-70.1489
-16.6323
-4.20265
-5423.1
-1279.21
-294.132
-65.562
-16.563
-1008.26
-345.836
-89.3878
-21.3074
-5.42399
-6495.34
-1573.27
-366.07
-82.2103
-20.8516
-1604.44
-491.027
-121.375
-27.9204
-7.00753
-6026.53
-1454.74
-337.137
-75.4218
-19.0742
-1253.3
-414.35
-105.408
-24.7336
-6.22038
-6717.56
-1630.07
-380.032
-85.4799
-21.7131
-1813.01
-538.57
-131.34
-29.8131
-7.46583
-7019.72
-1689.78
-394.607
-88.7303
-22.5277
-1880.25
-560.829
-138.059
-29.1352
-7.71938
-515.378
-6951.6
-6138.01
-2206.18
-1577.8
-925.384
-3705.28
-2679.38
-6481.83
-6056.38
-3091.45
-2324.07
-365.654
-562.669
-969.593
-1580.11
-2376.21
-3287.09
-264.831
-571.493
-1191.93
-2081.66
-3146.01
-4237.97
-277.548
-127.916
-478.606
-327.039
-884.523
-732.876
-1481.66
-1373.68
-2137.45
-2052.3
-2812.26
-2534.37
-4088.07
-4634.1
-5058.81
-7571.65
-8509.26
-9394.77
-5157.97
-5689.87
-5677.8
-5196.14
-4463.97
-3914.51
-330.237
-279.662
-212.323
-132.511
-45.0319
-507.805
-429.677
-325.948
-203.297
-69.0648
-874.32
-739.086
-560.151
-349.146
-118.577
-1423.14
-1201.42
-909.47
-566.43
-192.303
-2136.19
-1799.84
-1360.23
-846.348
-287.236
-2946.05
-2474.54
-1865.79
-1159.68
-393.538
-239.041
-202.328
-153.531
-95.778
-32.5383
-515.471
-435.894
-330.469
-206.027
-69.9751
-1074.22
-907.551
-687.487
-428.376
-145.462
-1873.77
-1580.93
-1196.23
-744.864
-252.867
-2826.49
-2380.08
-1798.12
-1118.74
-379.717
-3796.71
-3188.1
-2403.79
-1494.45
-507.293
-250.788
-212.45
-161.345
-100.724
-34.2406
-115.59
-97.9265
-74.3738
-46.4312
-15.7845
-432.144
-365.817
-277.618
-173.21
-58.8586
-295.34
-250.065
-189.812
-118.442
-40.2501
-798.039
-674.978
-511.819
-319.132
-108.406
-661.372
-559.541
-424.39
-264.658
-89.9067
-1335.22
-1127.85
-854.168
-532.123
-180.674
-1238.1
-1045.95
-792.196
-493.506
-167.553
-1922.66
-1620.78
-1225.26
-762.376
-258.706
-1846.19
-1556.26
-1176.23
-731.628
-248.205
-2521.21
-2117.76
-1596.22
-991.485
-336.269
-2272
-1907.73
-1436.73
-891.46
-302.091
-3645.21
-3047.21
-2290.7
-1423.03
-483.435
-4094.81
-3397.08
-2544.56
-1583.17
-540.463
-4395.95
-3601.97
-2688.5
-1685.22
-584.59
-6369.28
-5118.14
-3822.85
-2457.59
-898.26
-6759.22
-5279.85
-3971.74
-2682.83
-1098.07
-7142.08
-5472.48
-4142.16
-2903.09
-1285.17
-4601.35
-3848.74
-2895.11
-1799.44
-611.419
-5043.57
-4195.95
-3148.34
-1958.82
-667.592
-4982.76
-4113.8
-3079.32
-1923.27
-660.625
-4481.65
-3657.28
-2733.74
-1725.79
-605.097
-3721.15
-2976.47
-2227.42
-1443.24
-533.58
-3143.63
-2462.21
-1846.86
-1232.72
-483.145
-384.289
-620.384
-1071.63
-1734.04
-2592.35
-3557.02
-290.616
-651.482
-1331.78
-2284.79
-3403.47
-4516.49
-295.221
-142.752
-533.768
-374.681
-984.035
-822.944
-1636.89
-1521.33
-2369.47
-2315.73
-3119.27
-2939
-4375.42
-4907.48
-5314.27
-7734.24
-8583.83
-9418.01
-5402.44
-5844.95
-5719.6
-5141.56
-4375.38
-3873.02
-347.171
-294.113
-223.382
-139.458
-47.4013
-560.294
-474.504
-360.284
-224.883
-76.4312
-967.231
-818.573
-621.15
-387.552
-131.693
-1563.65
-1321.99
-1002.29
-625.028
-212.345
-2334.21
-1970.5
-1492.21
-929.978
-315.901
-3194.94
-2690.7
-2034.28
-1267.13
-430.509
-262.48
-222.323
-168.829
-105.387
-35.8162
-588.194
-497.984
-378.017
-235.912
-80.1715
-1201.56
-1016.49
-771.083
-481.01
-163.438
-2059.2
-1740.06
-1318.75
-822.215
-279.325
-3062.41
-2583.49
-1955.5
-1218.5
-413.917
-4053.54
-3411.21
-2577.75
-1605.44
-545.488
-266.825
-226.123
-171.799
-107.287
-36.4778
-129.052
-109.394
-83.1347
-51.9275
-17.6585
-482.276
-408.597
-310.358
-193.778
-65.8755
-338.61
-286.96
-218.026
-136.156
-46.2906
-888.603
-752.403
-571.19
-356.491
-121.161
-743.322
-629.582
-478.083
-298.436
-101.437
-1476.89
-1249.39
-947.715
-591.165
-200.865
-1373
-1161.84
-881.509
-549.936
-186.863
-2135.14
-1803.81
-1366.73
-851.972
-289.409
-2087.53
-1764.24
-1337.07
-833.532
-283.134
-2804.18
-2363.46
-1787.65
-1113.5
-378.222
-2644.17
-2230.03
-1687.2
-1050.78
-356.808
-3913.21
-3283.05
-2476.98
-1543.14
-525.037
-4355.03
-3631.17
-2733.48
-1707.19
-583.939
-4647.35
-3835.61
-2882.87
-1816.23
-631.511
-6552.37
-5306.85
-3994.55
-2583.11
-947.01
-6864.96
-5399.88
-4090.16
-2777.74
-1140.1
-7180.72
-5518.02
-4188.71
-2942.14
-1303.44
-4829.48
-4049.65
-3053.96
-1901.96
-646.95
-5192.64
-4331.55
-3258.97
-2032.09
-693.41
-5030.49
-4164.31
-3126.02
-1957.23
-673.331
-4442.65
-3634.1
-2724.45
-1725.25
-606.487
-3649.94
-2923.56
-2193.8
-1427.14
-530.071
-3109.78
-2436.3
-1829.74
-1224.13
-481.167
-19859.8
-14429.1
-5034.89
-4011.74
-3063.28
-4273.71
-3953.78
-13014.9
-14596.5
-11535.3
-13308.5
-7842.01
-11234.4
-5983.67
-6252.25
-4554.81
-20510.6
-11277
-4311.59
-7053.75
-9241.86
-6343.15
-6993.24
-5290.35
-3251.28
-4686.33
-5236.91
-5364.46
-19472.2
-13010.1
-12823.2
-9165.22
-9134.4
-9688.89
-4560.13
-5748.33
-7170.02
-14140.6
-12227.6
-10251.9
-9438.09
-8036.66
-9406.38
-6456.26
-4997.42
-3807.63
-1934.23
-4465.21
-3721.38
-2801.51
-1750.85
-599.574
-3593.55
-3018.94
-2279.27
-1419.77
-482.8
-2741.25
-2299.57
-1732.97
-1077.47
-365.882
-3837.2
-3229.63
-2439.82
-1518.54
-515.646
-3531.22
-2957.88
-2228.38
-1386.83
-471.619
-9511.92
-7896.75
-6487.04
-5803.73
-5663.32
-10844.9
-9332.84
-7529.72
-5977.02
-3505.92
-8303.93
-5833.66
-4382.52
-3038.62
-1307.01
-9870.4
-8134.15
-6357.14
-4640.83
-2224.15
-6625.3
-5307.73
-3910.65
-2439.1
-848.408
-8806.88
-6561.69
-4783.86
-3028.61
-1104.04
-5179.84
-4222.69
-3131.13
-1944.76
-667.023
-5391.13
-4381.13
-3243.02
-2014.25
-691.665
-3977.56
-3263.91
-2426.08
-1503.84
-512.983
-14407.1
-11497.7
-9521.4
-8349.5
-7530.71
-8758.21
-6699
-5077.99
-3471.22
-1510.99
-3723.46
-3035.27
-2258.04
-1412.65
-490.642
-6113.31
-5009.12
-3751.94
-2368.51
-833.054
-7782.4
-6283.82
-4731.77
-3077.76
-1159.07
-5476.5
-4481.02
-3365.54
-2140.02
-760.01
-6113.39
-5046.73
-3797.37
-2397.88
-837.543
-4657.6
-3858.16
-2896.38
-1812.85
-623.953
-2871.14
-2379.09
-1778.73
-1103.77
-375.71
-4171.28
-3482.58
-2617.57
-1627.67
-553.781
-4583.93
-3772.85
-2814.46
-1751.74
-600.523
-4721.81
-3908.05
-2928.77
-1828.61
-627.936
-13691
-11451.2
-9635.26
-8599.26
-7462.29
-9158.27
-6629.57
-5127.87
-3789.22
-1901.24
-9864.47
-8027.2
-6253.9
-4626.08
-2209.33
-7334.16
-5669.41
-4317.8
-2945.33
-1188.3
-7720.54
-6258.77
-4728.16
-3085.15
-1157.64
-7750.48
-5980.35
-4550.63
-3096.99
-1237.5
-3984.01
-3285.04
-2467.91
-1555.53
-542.32
-5105.53
-4256.69
-3200.39
-1994.2
-680.228
-6249.22
-5141.28
-3857.93
-2431.99
-848.183
-471.074
-1345.86
-2148.99
-2913.97
-3644.39
-4328.8
-2671.86
-7172.78
-6799.27
-2609.53
-9107.67
-7641.86
-9083.65
-10045
-2425.95
-1565.67
-5635.91
-3249.06
-10692.3
-7600.7
251.224
-2165.36
-5971.7
-5579.11
-2098.53
-7738.56
-6222.02
-7606.29
-8550.3
-2007.82
-920.757
-4843.68
-1686.89
-8841.66
-4551.12
1604.95
-1578.46
-4531.33
-4217.74
-1533.37
-6099.65
-3716.22
-6151.94
-6795.57
-1511.84
-838.913
-3424.49
-1757.77
-7038.47
-1786.77
1745.5
-1158.55
-3496.71
-3319.34
-1166.03
-4652.71
-2244.66
-5093.5
-5977.18
-1134.87
-882.668
-2502.3
-1779.95
-6177.5
-346.521
1312.61
-933.377
-2957.16
-2851.46
-980.168
-3725.73
-1854.4
-4556.29
-5790.33
-895.716
-963.348
-1793.53
-1712.16
-5380.84
-130.311
154.237
-822.563
-2632.7
-2613.64
-886.013
-3443.65
-2120.96
-4213.03
-5530.87
-689.608
-755.968
-1475.74
-1674.64
-5294.93
-953.904
-477.502
-1393.67
-3404.92
-5002.28
-1935.74
-5513.72
-9645.42
-7325.36
-10549.1
-1007.42
-707.671
-3884.46
-2384.95
-1145.54
-9218.58
-4812.3
-1297.31
-3176.35
-4396.79
-1682.64
-5100.18
-8725
-6614.78
-8987.03
-1030.75
-625.43
-4023.29
-2255.87
-325.671
-9049.31
-3616.54
-1142.16
-2806.1
-3605.41
-1353.09
-4649.44
-7812.84
-5634.43
-7913.56
-915.952
-718.422
-3444.92
-2350.31
-548.793
-7321.91
-3457.35
-989.444
-2534.31
-2995.89
-1100.44
-4345.46
-7103.97
-5021.95
-7193.11
-842.084
-725.166
-3190.61
-2442.87
-362.416
-6799.05
-3483.35
-895.81
-2284.02
-2663.37
-963.736
-3951.64
-6527.35
-4586.58
-6841.83
-789.942
-780.912
-2904.22
-2644.65
-512.161
-6531.87
-3551.15
-832.945
-2041.56
-2471.58
-887.379
-3651.75
-6446.5
-4263.25
-6620.35
-821.303
-907.143
-2591.48
-2519.67
-768.393
-6684.67
-3933.3
6127.86
7737.46
16029.1
23440.2
23866.2
41122.2
18317.4
46642.8
14921.6
32764
22342.3
33923.5
20018
26322.4
7564.59
8580.68
15064.5
17249
19433
19272
15285.7
18872.5
22520.8
20195.7
5061.67
3847
6209.67
4196.66
12726.9
10164.3
21766.6
15767.7
16795
17493.1
18680.7
17860.2
6583.13
5120.51
39782.7
53253.8
25701.3
31551.3
53462.4
69374.3
27646.4
31653
29512.3
41685.4
25759.7
34136.2
15093.3
24311.5
2740.91
940.389
2810.26
1025.26
8739.77
3528.93
12020.5
4425.79
8561.55
3280.57
9074.54
2911.02
15475.7
4926.42
19962.5
6738.91
24347.1
12103.8
22289
13207.3
22792.5
14742.7
20049.4
15057.1
17554
10431.6
17564.9
8965.96
23000.4
14686.8
23052.5
14818.2
21181.9
15929.8
21438.5
15995.5
18958.1
12033.6
19634.9
12325.9
17948.3
7787.84
8306.18
10138.3
18021.7
8520.18
7259.92
10293.9
19007
7746.68
9405.35
10201.5
19949.3
7931.39
10225.1
10651
3537.74
3823.5
1216.54
2341.89
10956.7
11596.9
4242.71
7568.55
14089
15639.1
6832.42
11637.5
12294.6
999.416
13697.6
16976
9261.19
656.68
7405.52
12359.1
19950.6
13984
10029.9
12213.6
10721
9291.57
14598
3287.82
2673.35
1860.6
1868.78
10169.1
8544.78
6193
5866.35
12640
10645.1
8011.98
7177.94
5826.57
7438.54
12065.9
12527.2
14182.5
12896.4
16001.2
13896.7
10915.6
9190.4
9115.92
9548.53
12052.2
9436.32
11009.7
7944.03
9559.75
6532.78
11201.7
7317.83
10301.6
4717.66
8865.15
9558.3
12631.1
16418.3
13904.1
20204.9
7069.81
7805.44
9136.79
2813.13
7908.44
15201.1
7506.97
16315.5
13770.4
24954
14012.5
26503.8
5998.61
13091.5
5459.15
13968.9
8302.55
6231.5
11582.8
4551.53
8512.39
1579.66
10081.4
664.377
7989.15
9383.37
12139.5
5593.36
6617.16
11079.1
10750.9
7349.15
2081.59
1844.2
1664.69
1540.2
1419.31
1276.01
6955.69
5657.82
4861.67
4498.4
3581.32
3080.69
8448.39
7243.09
6670.64
5371.31
4347.83
4092.82
6505.39
5711.95
5555.82
10897.4
8211.19
6883.02
10320.7
7558.58
6093.17
10823
8478.89
7342.79
6800.95
4444.04
3445.96
15676.4
13467
11594.3
10123.3
8358.9
6885.24
9046.99
6967.48
5506.77
7642.11
5466.94
4152.12
7933.56
4386.86
2442.55
10420.8
14117.4
8247.49
10661.4
11277.2
16554.5
10082.9
14666.1
69.6695
626.355
-431.05
57.3077
2959.98
3411.18
1228.68
735.538
659.575
2366.1
9411.53
13728.5
6636.92
3664.48
9964.96
9897.54
15409.3
16979.1
-624.596
-4179.37
7589.86
7155.51
7225.05
5573.06
889.809
489.757
565.037
235.521
2019.53
185.968
-304.971
-850.755
9221.37
2357.9
6254.24
1613.02
9069.42
2756.49
10986.6
3524.36
8855.41
11941.2
8185.65
11643.3
14299.7
15109.2
13643.9
14301.2
5625
9376.67
6499.15
9317.77
8689.97
11214.2
9588.93
11326.8
14217.8
14043.1
14887.5
14098.3
5681.52
9071.75
6185.65
9237.01
-198.986
1280.09
7341.26
4540.96
-761.223
867.531
6800.47
4008.22
263.94
1543.82
7505.86
4953.23
718.169
1815.29
7542.35
5126.61
-671.296
-766.537
144.515
-4.32187
-2937.18
-2965.46
-239.941
-405.798
-654.976
-2040.37
1621.34
954.584
-10270.6
-9630.81
-5593.38
-4319.99
-494.24
-10543.8
-10801.8
-4328.45
-6406.81
-897.4
10313.7
8056.96
7113.66
6637.94
3979.25
-781.839
-712.556
-67.7684
21.6675
-2559.68
-2490.54
-131.058
98.474
-2610.67
-3118.93
622.577
917.323
-5133.57
-2292.83
-8137.8
-5061.19
-3646.13
-2746.36
-4132.24
-3561.14
359.086
1266.3
3787.07
2388.04
1035.72
-1011.37
971.23
-774.58
1636.79
314.08
1987.47
2261.5
5201.57
4744.43
9909.29
5966.44
8132.28
8164.32
12345.1
9988.05
7766.42
4546.48
3853.67
3817.21
11688.6
5145.62
12858.2
5771.59
13771
10194.2
14696.6
10934
9436.47
3692.46
10574.5
4285.48
6068.37
4774.39
4610.58
6826.52
3901.68
4381.53
3930.97
6327.64
7015.73
4710.93
5215.21
7841.91
8551.37
5120.15
6572.28
8095.84
-717.564
-743.444
-831.296
-54.4269
-276.409
-303.88
-2713.34
-2869.77
-2863.25
-209.782
-789.015
-793.321
-3472.97
-3839.5
-3925.55
529.709
-782.528
-1051.39
-1207.51
-1025.66
-722.935
-3678.88
-3741.79
-3478.66
-3007.93
-3375.05
-3310.09
-3725.34
-3969.51
-3859.86
1248.69
-354.602
-472.239
3475.33
1986.42
1063.56
-965.725
-2048.38
-2625.63
-946.478
-2321.13
-2918.52
-436.552
-1917.85
-2342.37
2181.87
-492.61
-807.381
-25.3269
-34.0126
-42.4463
-63.6018
-245.891
-136.018
-111.779
-105.729
-16.6639
-75.1166
-172.226
-261.768
-426.59
-268.192
-300.485
-316.223
206.871
-29.9274
-247.192
-467.092
-165.07
-219.425