/*--------------------------------*- C++ -*----------------------------------*\
| =========                 |                                                 |
| \\      /  F ield         | OpenFOAM: The Open Source CFD Toolbox           |
|  \\    /   O peration     | Version:  2306                                  |
|   \\  /    A nd           | Website:  www.openfoam.com                      |
|    \\/     M anipulation  |                                                 |
\*---------------------------------------------------------------------------*/
FoamFile
{
    version     2.0;
    format      ascii;
    arch        "LSB;label=32;scalar=64";
    class       volScalarField;
    location    "0.5";
    object      p;
}
// * * * * * * * * * * * * * * * * * * * * * * * * * * * * * * * * * * * * * //

dimensions      [0 2 -2 0 0 0 0];

internalField   nonuniform List<scalar> 
400
(
7.79956e-06
-0.0032169
-0.00716587
-0.014079
-0.0192116
-0.0210852
-0.0188228
-0.0114711
0.00406572
0.0249298
0.00325208
-1.93212e-05
-0.00294186
-0.00783655
-0.0114161
-0.0124157
-0.0100954
-0.00409768
0.00912689
0.0266778
0.00729999
0.00283933
-0.000168575
-0.00475038
-0.00790312
-0.00866055
-0.00642346
-0.000871175
0.0112401
0.0272143
0.0148065
0.00777348
0.00403004
-0.000950639
-0.00408647
-0.00477819
-0.00269458
0.00235495
0.0133068
0.0275791
0.0214038
0.0116812
0.00684947
0.000862949
-0.00272752
-0.00361992
-0.00168647
0.00314368
0.0135834
0.027278
0.0257012
0.0131617
0.00711958
-0.000167449
-0.00442139
-0.00556942
-0.00365766
0.00129591
0.0119765
0.026012
0.026492
0.0109208
0.00364472
-0.0050009
-0.00994982
-0.0112332
-0.00905073
-0.00359571
0.00816829
0.0234958
0.0214005
0.00344182
-0.00507307
-0.0150706
-0.0205357
-0.0217022
-0.0188811
-0.0122925
0.00141492
0.0194552
0.00525649
-0.0171957
-0.0274538
-0.0390181
-0.0446134
-0.0448336
-0.0402239
-0.0309828
-0.012895
0.010258
-0.0276166
-0.0545592
-0.0662
-0.0784124
-0.0832068
-0.0810578
-0.0728929
-0.0597333
-0.0346895
-0.00369468
0.0431755
0.0643527
0.0802763
0.0877558
0.0899035
0.0877388
0.0822767
0.0751674
0.0712022
0.0680669
0.0414335
0.0592447
0.0727946
0.0789012
0.0811461
0.0799258
0.0760874
0.0710234
0.0680808
0.0649218
0.040789
0.0570329
0.0694908
0.0751732
0.0773528
0.0763854
0.0729728
0.0682124
0.0651833
0.0608736
0.0399335
0.0545585
0.065981
0.0712621
0.0733263
0.0724242
0.0689883
0.0637669
0.059982
0.0531471
0.0391014
0.0533076
0.064479
0.0697085
0.0717387
0.0706518
0.0666915
0.0603629
0.055434
0.0458906
0.0382058
0.0530142
0.0648607
0.0705305
0.0727547
0.0714872
0.0667977
0.0590134
0.0527719
0.0403106
0.0369942
0.0535051
0.0671094
0.0738598
0.0767079
0.0754991
0.0701063
0.0607377
0.0531012
0.0373718
0.0349478
0.0547273
0.0713832
0.0800417
0.0842709
0.0835943
0.0777461
0.066838
0.0577393
0.0391344
0.0307478
0.0569217
0.0802098
0.0934619
0.101149
0.102568
0.0970443
0.0843274
0.0730473
0.048986
0.0231585
0.0593222
0.0930523
0.113471
0.127656
0.133737
0.130285
0.116977
0.103819
0.0738163
-0.0685749
-0.0985416
-0.111471
-0.124006
-0.126462
-0.120735
-0.108244
-0.0895873
-0.0576479
-0.0183819
-0.143094
-0.180413
-0.194318
-0.203696
-0.200266
-0.186271
-0.164539
-0.137007
-0.0928992
-0.0423397
-0.257401
-0.302839
-0.315688
-0.316531
-0.29889
-0.269108
-0.23227
-0.19121
-0.131689
-0.0673449
-0.378493
-0.432693
-0.441667
-0.426755
-0.388371
-0.338627
-0.285288
-0.230445
-0.157943
-0.0842018
-0.551945
-0.612581
-0.609118
-0.560425
-0.487206
-0.407937
-0.332391
-0.262486
-0.177167
-0.0951332
-0.81749
-0.874219
-0.836032
-0.718927
-0.587519
-0.467379
-0.366093
-0.280804
-0.185274
-0.0986831
-1.28488
-1.27176
-1.13973
-0.88821
-0.668992
-0.500283
-0.375203
-0.278756
-0.179298
-0.0941703
-2.29688
-1.87571
-1.50627
-1.0205
-0.69515
-0.485602
-0.347936
-0.2521
-0.159452
-0.0825183
-3.71933
-2.32184
-1.69771
-1.02987
-0.655881
-0.441132
-0.30987
-0.222871
-0.140995
-0.0737282
-7.65897
-2.82354
-1.53659
-0.759551
-0.452939
-0.299256
-0.210382
-0.156576
-0.10333
-0.0590668
0.0149923
0.0609244
0.105695
0.134901
0.157032
0.169717
0.170552
0.157565
0.142819
0.107994
0.00206436
0.0624735
0.12511
0.169382
0.206904
0.233637
0.244706
0.236828
0.221003
0.176548
-0.0127113
0.0644985
0.148681
0.213018
0.273532
0.324129
0.356363
0.361493
0.347701
0.293518
-0.0212591
0.066508
0.167734
0.250207
0.333415
0.411221
0.471615
0.498079
0.490086
0.426577
-0.0268442
0.0703257
0.186909
0.288207
0.398994
0.513736
0.617574
0.686261
0.694479
0.626752
-0.0278458
0.0743877
0.20284
0.322012
0.46309
0.625949
0.79819
0.947332
0.99709
0.939747
-0.0248413
0.0762167
0.209938
0.341902
0.510639
0.728856
1.00046
1.30136
1.45715
1.48668
-0.020907
0.0728814
0.201147
0.335011
0.51964
0.78513
1.17534
1.73365
2.14817
2.62813
-0.019188
0.0656643
0.184337
0.310832
0.491219
0.765544
1.21166
1.96952
2.65812
4.17032
-0.0194679
0.0434729
0.135345
0.231964
0.373503
0.591892
0.978362
1.86725
3.26193
8.28358
)
;

boundaryField
{
    movingWall
    {
        type            zeroGradient;
    }
    fixedWalls
    {
        type            zeroGradient;
    }
    frontAndBack
    {
        type            empty;
    }
}


// ************************************************************************* //
