/*--------------------------------*- C++ -*----------------------------------*\
| =========                 |                                                 |
| \\      /  F ield         | OpenFOAM: The Open Source CFD Toolbox           |
|  \\    /   O peration     | Version:  2306                                  |
|   \\  /    A nd           | Website:  www.openfoam.com                      |
|    \\/     M anipulation  |                                                 |
\*---------------------------------------------------------------------------*/
FoamFile
{
    version     2.0;
    format      ascii;
    arch        "LSB;label=32;scalar=64";
    class       volVectorField;
    location    "0.5";
    object      U;
}
// * * * * * * * * * * * * * * * * * * * * * * * * * * * * * * * * * * * * * //

dimensions      [0 1 -1 0 0 0 0];

internalField   nonuniform List<vector> 
400
(
(7.5935e-05 -7.59288e-05 0)
(8.01885e-05 1.85927e-05 0)
(-0.000151264 0.000122716 0)
(-0.00100654 0.000264562 0)
(-0.00250912 0.000389177 0)
(-0.00431905 0.000440114 0)
(-0.00609632 0.000415645 0)
(-0.00838074 0.000411421 0)
(-0.0100956 0.000252744 0)
(-0.0115767 8.04502e-05 0)
(-1.38684e-05 -8.45413e-05 0)
(-0.000672576 0.000679311 0)
(-0.00182488 0.00141883 0)
(-0.00499041 0.0025511 0)
(-0.0096103 0.00337938 0)
(-0.0151833 0.00378136 0)
(-0.0211203 0.00374462 0)
(-0.0268745 0.00332438 0)
(-0.0328979 0.00219046 0)
(-0.0362172 0.00067561 0)
(-0.000115338 0.000138162 0)
(-0.0014227 0.00183346 0)
(-0.00329244 0.0032711 0)
(-0.00802164 0.00547158 0)
(-0.0146065 0.00708494 0)
(-0.0223766 0.00785784 0)
(-0.030554 0.00775062 0)
(-0.0383747 0.00683891 0)
(-0.0467389 0.00451923 0)
(-0.0510168 0.00136837 0)
(-0.000265793 0.000995364 0)
(-0.00269478 0.00510324 0)
(-0.00580502 0.00810278 0)
(-0.0130591 0.0124993 0)
(-0.0227062 0.0156667 0)
(-0.0337135 0.0171202 0)
(-0.0451294 0.0167789 0)
(-0.0558765 0.014732 0)
(-0.0673677 0.00969873 0)
(-0.0732093 0.00298471 0)
(-0.000432514 0.00261961 0)
(-0.00393233 0.0102494 0)
(-0.0082907 0.0153686 0)
(-0.0181078 0.0225824 0)
(-0.0306308 0.0275004 0)
(-0.044678 0.0296461 0)
(-0.059048 0.0288874 0)
(-0.0724427 0.0251641 0)
(-0.0866321 0.0165632 0)
(-0.0939113 0.00508067 0)
(-0.000568119 0.00483155 0)
(-0.00510536 0.0172683 0)
(-0.0106756 0.0250805 0)
(-0.0230065 0.0356534 0)
(-0.0384411 0.0425656 0)
(-0.0554701 0.0453258 0)
(-0.0726598 0.0438194 0)
(-0.0885592 0.0379915 0)
(-0.105282 0.0249362 0)
(-0.113907 0.00769832 0)
(-0.000662812 0.00746088 0)
(-0.00625441 0.0262119 0)
(-0.0130168 0.0373174 0)
(-0.0278316 0.0518872 0)
(-0.0462912 0.0609981 0)
(-0.0662931 0.0642427 0)
(-0.0861983 0.0616435 0)
(-0.104537 0.0532175 0)
(-0.123707 0.0347918 0)
(-0.133638 0.0109149 0)
(-0.000886698 0.0115486 0)
(-0.00750875 0.037362 0)
(-0.0154942 0.0523874 0)
(-0.0329795 0.0715654 0)
(-0.0542771 0.0831465 0)
(-0.0772293 0.0867625 0)
(-0.099878 0.0825948 0)
(-0.120459 0.071054 0)
(-0.141959 0.0464595 0)
(-0.153257 0.0145545 0)
(-0.00103077 0.0170026 0)
(-0.0092028 0.0554426 0)
(-0.0190178 0.0770446 0)
(-0.0400972 0.103527 0)
(-0.0654091 0.11839 0)
(-0.0921214 0.122008 0)
(-0.117993 0.115125 0)
(-0.141178 0.0982448 0)
(-0.165114 0.06415 0)
(-0.177926 0.0210772 0)
(-0.00137614 0.025255 0)
(-0.011314 0.0780717 0)
(-0.0229543 0.106864 0)
(-0.0477685 0.14103 0)
(-0.0766833 0.159154 0)
(-0.106337 0.161863 0)
(-0.134187 0.150846 0)
(-0.158615 0.128288 0)
(-0.183263 0.0834215 0)
(-0.197032 0.028065 0)
(-0.0115912 -7.3371e-05 0)
(-0.0101293 -0.000252256 0)
(-0.00839165 -0.00041937 0)
(-0.00607027 -0.000425256 0)
(-0.00425524 -0.000447947 0)
(-0.00242632 -0.000390698 0)
(-0.000934063 -0.000258838 0)
(-0.000107965 -0.000112429 0)
(0.000101649 -9.5259e-06 0)
(7.71591e-05 7.68457e-05 0)
(-0.036247 -0.000636491 0)
(-0.0329641 -0.00219293 0)
(-0.0268788 -0.00337862 0)
(-0.0210306 -0.00381418 0)
(-0.0150035 -0.00383401 0)
(-0.00938527 -0.00338846 0)
(-0.00478676 -0.00251024 0)
(-0.00169834 -0.00135048 0)
(-0.000603016 -0.000616382 0)
(-3.60634e-06 0.000106188 0)
(-0.0510537 -0.00129843 0)
(-0.0468211 -0.00452684 0)
(-0.0383794 -0.00694353 0)
(-0.03044 -0.00788401 0)
(-0.0221478 -0.00795899 0)
(-0.014317 -0.00710321 0)
(-0.00775514 -0.00539399 0)
(-0.00312243 -0.00313852 0)
(-0.00132679 -0.00170821 0)
(-0.000100723 -8.95017e-05 0)
(-0.0732717 -0.00284408 0)
(-0.0675212 -0.00971008 0)
(-0.0559548 -0.0149366 0)
(-0.0450539 -0.0170473 0)
(-0.0334834 -0.0173292 0)
(-0.0223753 -0.0157159 0)
(-0.0127278 -0.0123541 0)
(-0.00558463 -0.00783974 0)
(-0.00256667 -0.00484518 0)
(-0.000246569 -0.000887531 0)
(-0.0940406 -0.00479681 0)
(-0.0869936 -0.0165383 0)
(-0.0727844 -0.0254784 0)
(-0.0592166 -0.0293312 0)
(-0.044622 -0.0300212 0)
(-0.030391 -0.0276325 0)
(-0.0177998 -0.0223986 0)
(-0.00805562 -0.0149667 0)
(-0.00378793 -0.00983502 0)
(-0.000407916 -0.00242856 0)
(-0.114173 -0.00710071 0)
(-0.106077 -0.0247611 0)
(-0.0894815 -0.0383997 0)
(-0.0733969 -0.0444969 0)
(-0.0558793 -0.0459737 0)
(-0.0385141 -0.0428996 0)
(-0.0228578 -0.0355221 0)
(-0.0104907 -0.0245814 0)
(-0.00497492 -0.0167093 0)
(-0.000541961 -0.0045508 0)
(-0.134142 -0.00967943 0)
(-0.125253 -0.0342366 0)
(-0.106496 -0.0536588 0)
(-0.087974 -0.0626336 0)
(-0.0676065 -0.0653382 0)
(-0.0470228 -0.0617557 0)
(-0.028057 -0.0520036 0)
(-0.0129918 -0.0368513 0)
(-0.00619131 -0.0255852 0)
(-0.000641496 -0.00710622 0)
(-0.154104 -0.0121288 0)
(-0.144677 -0.0451147 0)
(-0.124063 -0.0713919 0)
(-0.103381 -0.0839618 0)
(-0.0800796 -0.0885704 0)
(-0.0561854 -0.0847008 0)
(-0.0339553 -0.0723266 0)
(-0.0158061 -0.0522423 0)
(-0.00760215 -0.036865 0)
(-0.000878877 -0.011149 0)
(-0.179468 -0.0157722 0)
(-0.17006 -0.0607555 0)
(-0.14802 -0.0980005 0)
(-0.124983 -0.117098 0)
(-0.0982026 -0.125322 0)
(-0.069898 -0.121888 0)
(-0.0427709 -0.106108 0)
(-0.0201609 -0.0781307 0)
(-0.00969643 -0.0557028 0)
(-0.00106675 -0.016744 0)
(-0.199336 -0.0179055 0)
(-0.190905 -0.0764065 0)
(-0.169614 -0.126621 0)
(-0.1458 -0.153293 0)
(-0.116959 -0.167354 0)
(-0.085005 -0.165917 0)
(-0.0531142 -0.147072 0)
(-0.0254863 -0.110704 0)
(-0.012519 -0.0802977 0)
(-0.00150671 -0.0255542 0)
(-0.00161331 0.0322349 0)
(-0.0131833 0.0987976 0)
(-0.0264957 0.13414 0)
(-0.0543323 0.175035 0)
(-0.0855543 0.194618 0)
(-0.116363 0.19534 0)
(-0.144199 0.18012 0)
(-0.167556 0.151525 0)
(-0.19068 0.0984322 0)
(-0.203524 0.0340429 0)
(-0.00190165 0.0415418 0)
(-0.0160828 0.129396 0)
(-0.0320751 0.174286 0)
(-0.0633262 0.221962 0)
(-0.09599 0.241027 0)
(-0.12538 0.236496 0)
(-0.149472 0.213812 0)
(-0.167711 0.177063 0)
(-0.184239 0.114125 0)
(-0.193073 0.0418108 0)
(-0.00276256 0.056792 0)
(-0.0206854 0.166631 0)
(-0.0396731 0.219809 0)
(-0.0734223 0.270396 0)
(-0.103404 0.28349 0)
(-0.125309 0.269084 0)
(-0.138735 0.236262 0)
(-0.14523 0.191505 0)
(-0.148184 0.121552 0)
(-0.148922 0.0454961 0)
(-0.00332465 0.0661976 0)
(-0.0258249 0.199264 0)
(-0.0476118 0.257643 0)
(-0.0816265 0.306164 0)
(-0.1043 0.307352 0)
(-0.11405 0.281384 0)
(-0.113892 0.240379 0)
(-0.105616 0.189594 0)
(-0.0937298 0.118179 0)
(-0.0858508 0.0454673 0)
(-0.00514059 0.0844095 0)
(-0.0339793 0.237079 0)
(-0.0582073 0.296285 0)
(-0.0867031 0.331101 0)
(-0.0941604 0.315764 0)
(-0.0838528 0.275898 0)
(-0.0632159 0.226459 0)
(-0.0375033 0.173765 0)
(-0.00837249 0.105898 0)
(0.00918233 0.0408968 0)
(-0.00868369 0.108392 0)
(-0.046581 0.28043 0)
(-0.0702528 0.331594 0)
(-0.0817671 0.33975 0)
(-0.0604227 0.300147 0)
(-0.0207406 0.246556 0)
(0.0245048 0.192983 0)
(0.0694731 0.142845 0)
(0.114928 0.0845352 0)
(0.140998 0.0325543 0)
(-0.0163198 0.143806 0)
(-0.0626269 0.323983 0)
(-0.0735617 0.349181 0)
(-0.0453437 0.314871 0)
(0.0237962 0.249109 0)
(0.098649 0.189055 0)
(0.16607 0.139842 0)
(0.226666 0.0993947 0)
(0.282047 0.0566837 0)
(0.312256 0.0216076 0)
(-0.0318124 0.214087 0)
(-0.0563103 0.338133 0)
(-0.0184618 0.310556 0)
(0.0905306 0.228319 0)
(0.206987 0.158252 0)
(0.305838 0.109357 0)
(0.383595 0.0757155 0)
(0.442553 0.0517857 0)
(0.494659 0.0284615 0)
(0.522016 0.0104095 0)
(-0.0249556 0.267064 0)
(0.0148041 0.295118 0)
(0.108887 0.23273 0)
(0.268223 0.14435 0)
(0.396206 0.0901604 0)
(0.489976 0.0584798 0)
(0.55746 0.0389312 0)
(0.605088 0.0260797 0)
(0.647285 0.0139513 0)
(0.666445 0.00502893 0)
(0.26201 0.171372 0)
(0.458053 0.110903 0)
(0.604337 0.0630387 0)
(0.743204 0.02479 0)
(0.802377 0.0128036 0)
(0.841252 0.00734763 0)
(0.869625 0.00436906 0)
(0.878937 0.00315838 0)
(0.897141 0.00148674 0)
(0.899525 0.000504585 0)
(-0.206334 -0.0188033 0)
(-0.20021 -0.0872713 0)
(-0.181683 -0.147878 0)
(-0.15967 -0.18258 0)
(-0.131048 -0.202861 0)
(-0.0975617 -0.204968 0)
(-0.0624282 -0.185313 0)
(-0.0305097 -0.141612 0)
(-0.0151693 -0.103771 0)
(-0.00184392 -0.0333999 0)
(-0.196084 -0.018985 0)
(-0.194512 -0.0964862 0)
(-0.183823 -0.169429 0)
(-0.16817 -0.215232 0)
(-0.144245 -0.246267 0)
(-0.112451 -0.256689 0)
(-0.0751632 -0.239376 0)
(-0.0383554 -0.188607 0)
(-0.01928 -0.139783 0)
(-0.00228492 -0.0444932 0)
(-0.150865 -0.0160636 0)
(-0.155415 -0.0975562 0)
(-0.158048 -0.178685 0)
(-0.155294 -0.234605 0)
(-0.144003 -0.279202 0)
(-0.121584 -0.303616 0)
(-0.0878955 -0.295749 0)
(-0.0480718 -0.243066 0)
(-0.0251944 -0.184687 0)
(-0.0033953 -0.0628374 0)
(-0.086136 -0.0137331 0)
(-0.095496 -0.0910051 0)
(-0.110962 -0.172827 0)
(-0.123374 -0.234946 0)
(-0.12731 -0.289338 0)
(-0.119766 -0.3285 0)
(-0.0960392 -0.336656 0)
(-0.0568576 -0.288032 0)
(-0.0310548 -0.223999 0)
(-0.00404852 -0.0746434 0)
(0.0111339 -0.0104525 0)
(-0.00259197 -0.0786191 0)
(-0.0313871 -0.154392 0)
(-0.0600158 -0.216838 0)
(-0.0855585 -0.279365 0)
(-0.101249 -0.334317 0)
(-0.0969492 -0.362883 0)
(-0.0667585 -0.332303 0)
(-0.0393884 -0.268244 0)
(-0.00605104 -0.0962442 0)
(0.145129 -0.00737588 0)
(0.128428 -0.0608207 0)
(0.0885387 -0.123558 0)
(0.0436919 -0.180139 0)
(-0.00552674 -0.244049 0)
(-0.0526414 -0.311998 0)
(-0.0823315 -0.367671 0)
(-0.0752126 -0.369403 0)
(-0.0509912 -0.31613 0)
(-0.00973688 -0.123594 0)
(0.317624 -0.0047375 0)
(0.300293 -0.0399524 0)
(0.255139 -0.0838743 0)
(0.199368 -0.126762 0)
(0.131478 -0.18169 0)
(0.0507847 -0.251775 0)
(-0.0296108 -0.332544 0)
(-0.0698978 -0.381714 0)
(-0.0634621 -0.359368 0)
(-0.0174032 -0.161707 0)
(0.526756 -0.00242332 0)
(0.511437 -0.0201251 0)
(0.470695 -0.0430334 0)
(0.419108 -0.0670511 0)
(0.346051 -0.101927 0)
(0.247347 -0.154542 0)
(0.123905 -0.232881 0)
(6.64725e-05 -0.328865 0)
(-0.0481366 -0.364084 0)
(-0.0317839 -0.233358 0)
(0.669925 -0.00136482 0)
(0.659722 -0.0100536 0)
(0.626764 -0.0216643 0)
(0.585966 -0.0341768 0)
(0.524441 -0.0536497 0)
(0.434381 -0.0861573 0)
(0.305088 -0.143575 0)
(0.135652 -0.240493 0)
(0.0308989 -0.310415 0)
(-0.0218498 -0.283025 0)
(0.900403 -0.00021349 0)
(0.900286 -0.00118264 0)
(0.885009 -0.00272503 0)
(0.877494 -0.00389549 0)
(0.851938 -0.00669355 0)
(0.815928 -0.0118799 0)
(0.759243 -0.0234407 0)
(0.622221 -0.0619334 0)
(0.473529 -0.111412 0)
(0.268009 -0.174552 0)
)
;

boundaryField
{
    movingWall
    {
        type            fixedValue;
        value           uniform (1 0 0);
    }
    fixedWalls
    {
        type            noSlip;
    }
    frontAndBack
    {
        type            empty;
    }
}


// ************************************************************************* //
