/*--------------------------------*- C++ -*----------------------------------*\
| =========                 |                                                 |
| \\      /  F ield         | OpenFOAM: The Open Source CFD Toolbox           |
|  \\    /   O peration     | Version:  2306                                  |
|   \\  /    A nd           | Website:  www.openfoam.com                      |
|    \\/     M anipulation  |                                                 |
\*---------------------------------------------------------------------------*/
FoamFile
{
    version     2.0;
    format      ascii;
    arch        "LSB;label=32;scalar=64";
    class       volVectorField;
    location    "2.6";
    object      flux;
}
// * * * * * * * * * * * * * * * * * * * * * * * * * * * * * * * * * * * * * //

dimensions      [0 1 -1 1 0 0 0];

internalField   nonuniform List<vector> 
2658
(
(1.01342e-06 9.92656e-07 -8.93819e-06)
(1.47635e-06 5.72344e-07 -8.66151e-06)
(4.74099e-07 1.78291e-07 -6.62275e-06)
(-4.68446e-08 -2.51119e-08 -6.03308e-06)
(-2.17111e-06 -2.1353e-06 -7.42415e-06)
(-1.8368e-06 2.62803e-06 -7.60867e-06)
(1.9441e-06 -2.26788e-06 -6.98415e-06)
(1.91799e-06 1.90823e-06 -6.73121e-06)
(-3.73475e-08 -3.84411e-08 -6.02799e-06)
(2.60928e-06 -1.86007e-06 -7.58621e-06)
(-1.74179e-06 5.79862e-07 -7.45272e-06)
(-1.24771e-06 -4.1353e-06 -5.8584e-06)
(8.18711e-07 2.49152e-06 -7.78657e-06)
(9.82809e-07 2.53566e-06 -7.26699e-06)
(7.54776e-07 2.04811e-06 -7.54e-06)
(-7.19495e-08 2.10572e-06 -7.7551e-06)
(-3.36798e-08 2.31244e-06 -7.42893e-06)
(-6.50112e-09 2.07287e-06 -7.73759e-06)
(-8.28903e-07 2.0967e-06 -7.53395e-06)
(-1.06895e-06 2.50445e-06 -7.17256e-06)
(-1.00857e-06 2.41177e-06 -7.66021e-06)
(-2.3462e-06 2.09669e-06 -6.89939e-06)
(-2.81977e-06 6.90348e-07 -7.89801e-06)
(2.13037e-06 -4.83707e-07 -6.08405e-06)
(-9.06468e-07 7.8466e-07 -9.50406e-06)
(-1.10843e-06 2.31096e-06 -7.64326e-06)
(-2.38747e-06 -5.07901e-07 -6.81776e-06)
(-3.48247e-07 1.36131e-07 -8.07273e-06)
(-1.74878e-06 1.88488e-06 -8.22428e-06)
(-1.87221e-06 -2.15968e-10 -6.73725e-06)
(-1.74877e-06 -1.88505e-06 -8.22425e-06)
(-2.38751e-06 5.07949e-07 -6.81782e-06)
(-1.10864e-06 -2.31096e-06 -7.64322e-06)
(-2.82004e-06 -6.90078e-07 -7.89805e-06)
(-9.06444e-07 -7.84506e-07 -9.50406e-06)
(2.13037e-06 4.83861e-07 -6.08404e-06)
(-1.18622e-06 -1.54968e-07 -7.88088e-06)
(5.41817e-07 1.95801e-07 -1.09227e-05)
(-2.34576e-06 -2.09736e-06 -6.89926e-06)
(-1.00877e-06 -2.41204e-06 -7.66046e-06)
(-1.06887e-06 -2.5047e-06 -7.17283e-06)
(-8.28646e-07 -2.09682e-06 -7.53402e-06)
(-6.56811e-09 -2.07264e-06 -7.73733e-06)
(7.19616e-08 1.04429e-06 -1.13005e-05)
(-1.46004e-06 -1.75119e-07 -7.23086e-06)
(1.36666e-06 -9.14764e-08 -7.14997e-06)
(-1.74183e-06 -5.79904e-07 -7.45285e-06)
(-6.32423e-08 1.08691e-06 -1.12887e-05)
(-7.22777e-08 -2.1061e-06 -7.75515e-06)
(7.54607e-07 -2.04805e-06 -7.53992e-06)
(9.82758e-07 -2.5352e-06 -7.26671e-06)
(8.1887e-07 -2.49142e-06 -7.78666e-06)
(2.22412e-06 -2.20372e-06 -6.96902e-06)
(-4.75068e-07 4.59226e-07 -1.13095e-05)
(2.50493e-06 -8.21101e-07 -7.79362e-06)
(2.05603e-06 -7.81475e-07 -7.55077e-06)
(-1.10484e-06 5.29131e-08 -1.12892e-05)
(1.14652e-07 -1.3869e-06 -7.18288e-06)
(-3.93584e-06 -2.13052e-10 -6.12498e-06)
(2.07936e-06 -2.49626e-08 -7.74504e-06)
(-1.10485e-06 -5.28989e-08 -1.12895e-05)
(2.05607e-06 7.81345e-07 -7.55096e-06)
(2.50446e-06 8.2122e-07 -7.7933e-06)
(-4.75254e-07 -4.5929e-07 -1.13094e-05)
(5.51997e-07 5.59493e-07 -7.35162e-06)
(-4.1444e-06 -1.20966e-06 -5.86999e-06)
(5.44308e-07 -1.72786e-06 -7.43315e-06)
(-2.79124e-08 -7.52397e-08 -6.74333e-06)
(-1.37509e-06 -2.91017e-06 -7.52935e-06)
(-1.37521e-06 2.91011e-06 -7.52913e-06)
(-6.60434e-08 -2.84213e-11 -6.13019e-06)
(1.39962e-06 2.50503e-06 -6.85535e-06)
(-8.16354e-08 -2.51549e-08 -5.35346e-06)
(-1.5398e-06 2.09893e-06 -6.19504e-06)
(2.5453e-08 -8.89661e-09 -4.79408e-06)
(-1.62069e-06 -1.58863e-06 -6.12511e-06)
(2.08035e-06 -1.57611e-06 -6.17849e-06)
(-1.64849e-08 3.46553e-08 -4.78786e-06)
(-1.8213e-06 1.55366e-06 -5.5068e-06)
(2.03799e-06 1.02188e-06 -5.404e-06)
(-2.38747e-06 -1.05409e-06 -6.17796e-06)
(-4.27086e-08 -6.39923e-08 -5.35176e-06)
(2.51462e-06 1.33643e-06 -6.82167e-06)
(-2.2777e-06 2.00581e-06 -7.00634e-06)
(-6.11705e-08 -4.58573e-08 -5.68194e-06)
(-3.80318e-08 -2.74193e-08 -4.49406e-06)
(-7.49073e-09 -8.75293e-10 -3.46822e-06)
(6.3847e-09 1.08359e-08 -2.60125e-06)
(1.11733e-08 1.49289e-08 -1.90377e-06)
(1.2255e-08 1.64194e-08 -1.37561e-06)
(1.07203e-08 1.44142e-08 -1.01094e-06)
(-3.12317e-08 -5.64764e-08 -1.05533e-06)
(2.78438e-08 2.96221e-08 -9.23966e-07)
(-1.87068e-07 1.46198e-07 -7.62593e-07)
(1.27492e-07 -6.5767e-08 -8.32089e-07)
(-2.24918e-08 -1.5025e-07 -8.81253e-07)
(-1.58353e-07 -2.84208e-08 -8.16548e-07)
(8.56828e-10 -1.63505e-07 -1.23868e-06)
(1.59476e-07 -3.05413e-08 -8.17174e-07)
(-1.2958e-07 -6.2954e-08 -8.29212e-07)
(7.05999e-08 -1.79363e-07 -1.24589e-06)
(1.80716e-07 -4.86909e-08 -8.39489e-07)
(1.56236e-07 -1.52925e-07 -8.946e-07)
(1.30064e-07 -8.41545e-08 -1.01067e-06)
(1.35239e-07 -6.96824e-08 -8.53582e-07)
(-2.70589e-07 1.59581e-07 -9.1598e-07)
(-5.25353e-08 -5.73478e-08 -6.52393e-07)
(-3.74901e-08 -2.5476e-10 -1.08748e-06)
(-1.22356e-08 2.05426e-08 -7.14173e-07)
(7.51056e-08 -1.68618e-07 -1.09211e-06)
(1.60929e-07 5.56329e-08 -1.01324e-06)
(6.46848e-08 -7.64947e-08 -8.27302e-07)
(1.28264e-07 -3.68278e-12 -1.13914e-06)
(6.46821e-08 7.64922e-08 -8.27275e-07)
(1.60939e-07 -5.56425e-08 -1.01324e-06)
(7.5095e-08 1.68606e-07 -1.09208e-06)
(1.35236e-07 6.96845e-08 -8.5358e-07)
(-2.70583e-07 -1.59576e-07 -9.15984e-07)
(1.56236e-07 1.52923e-07 -8.94596e-07)
(1.3007e-07 8.41584e-08 -1.01066e-06)
(1.80717e-07 4.86896e-08 -8.39492e-07)
(7.05978e-08 1.79364e-07 -1.24584e-06)
(-1.29581e-07 6.29513e-08 -8.29202e-07)
(1.59478e-07 3.05379e-08 -8.17159e-07)
(-2.49966e-07 -1.25499e-07 -7.93435e-07)
(2.51038e-07 -1.21595e-07 -7.97305e-07)
(-1.87053e-07 -1.46203e-07 -7.62559e-07)
(-2.24804e-08 1.50243e-07 -8.81254e-07)
(-1.58357e-07 2.84126e-08 -8.16524e-07)
(1.27488e-07 6.5773e-08 -8.32102e-07)
(-7.1854e-08 1.75792e-07 -1.24048e-06)
(-1.76021e-07 4.5761e-08 -8.28924e-07)
(-1.21363e-07 8.42768e-08 -9.94264e-07)
(-1.10383e-07 7.59777e-08 -8.22492e-07)
(-6.98425e-08 1.5696e-07 -1.07861e-06)
(7.78285e-09 -6.99618e-08 -7.56388e-07)
(-3.20504e-08 4.48231e-09 -7.30883e-07)
(-1.85135e-07 7.10503e-09 -8.55382e-07)
(1.53136e-07 -1.59182e-07 -7.42392e-07)
(1.53047e-07 1.592e-07 -7.42419e-07)
(-3.20238e-08 -4.50753e-09 -7.3086e-07)
(7.75993e-09 6.9971e-08 -7.56386e-07)
(7.45017e-08 -4.23986e-08 -8.40146e-07)
(-7.71403e-08 -4.4271e-08 -8.94185e-07)
(-8.86787e-08 -4.01318e-10 -1.12473e-06)
(-7.69635e-08 4.41214e-08 -8.93771e-07)
(4.28373e-08 7.69111e-11 -1.03907e-06)
(5.56618e-08 8.78466e-11 -9.94476e-07)
(-1.54191e-07 -8.71835e-08 -7.12529e-07)
(-1.60452e-07 8.59418e-08 -7.16108e-07)
(-1.33974e-07 1.87832e-10 -6.80001e-07)
(-1.69349e-07 6.83485e-09 -9.59888e-07)
(-1.66151e-07 4.56827e-08 -9.31813e-07)
(-1.72325e-07 -5.06333e-08 -6.03236e-07)
(-1.32445e-07 2.05852e-07 -8.08928e-07)
(-2.3559e-07 4.80728e-08 -7.61439e-07)
(-2.15095e-07 1.92674e-07 -6.89883e-07)
(-9.0564e-08 2.27655e-07 -7.60127e-07)
(-1.03042e-07 2.41375e-07 -7.1865e-07)
(-7.48073e-08 1.91528e-07 -7.43607e-07)
(3.04982e-10 1.92824e-07 -7.66866e-07)
(2.01496e-10 2.20818e-07 -7.36851e-07)
(-4.62769e-10 1.92632e-07 -7.67406e-07)
(7.22638e-08 1.9505e-07 -7.44205e-07)
(1.0269e-07 2.4696e-07 -7.1594e-07)
(9.25728e-08 2.2996e-07 -7.57493e-07)
(2.19937e-07 2.01495e-07 -6.90095e-07)
(2.72118e-07 6.53243e-08 -7.90646e-07)
(-6.21831e-08 -1.51501e-08 -1.16905e-06)
(1.64673e-07 3.71173e-08 -9.71701e-07)
(-4.16897e-07 -2.67691e-07 -1.22731e-06)
(4.6245e-07 3.45446e-07 -1.4641e-06)
(-5.37685e-07 -3.70658e-07 -1.71881e-06)
(6.36115e-07 4.61645e-07 -2.0164e-06)
(-7.38641e-07 -5.27408e-07 -2.38445e-06)
(8.78802e-07 6.27225e-07 -2.79441e-06)
(-1.01469e-06 -7.39772e-07 -3.27504e-06)
(1.19468e-06 8.40723e-07 -3.80579e-06)
(-1.36701e-06 -1.01173e-06 -4.39697e-06)
(1.58816e-06 1.09722e-06 -5.05001e-06)
(-1.79263e-06 -1.34832e-06 -5.739e-06)
(2.06914e-06 1.38886e-06 -6.4972e-06)
(-2.28308e-06 -1.76198e-06 -7.27408e-06)
(2.70558e-06 1.70738e-06 -7.87805e-06)
(-2.70813e-06 1.66731e-06 -7.63087e-06)
(2.87815e-06 1.39691e-06 -7.49197e-06)
(-2.97188e-06 1.32611e-06 -7.56212e-06)
(2.60925e-06 1.86018e-06 -7.58628e-06)
(-2.17131e-06 2.13523e-06 -7.4241e-06)
(-4.69394e-08 2.50346e-08 -6.03296e-06)
(-1.83673e-06 -2.62821e-06 -7.6088e-06)
(5.44307e-07 1.72783e-06 -7.4329e-06)
(-4.14405e-06 1.20955e-06 -5.86992e-06)
(5.52116e-07 -5.59417e-07 -7.35164e-06)
(-1.24774e-06 4.13535e-06 -5.85844e-06)
(4.8972e-07 -5.01969e-07 -9.57586e-06)
(-6.1206e-08 4.5699e-08 -5.68197e-06)
(-3.80322e-08 2.73373e-08 -4.49402e-06)
(-7.52518e-09 7.93195e-10 -3.46819e-06)
(6.3335e-09 -1.09151e-08 -2.60121e-06)
(1.11714e-08 -1.49806e-08 -1.90375e-06)
(1.22655e-08 -1.64488e-08 -1.37559e-06)
(1.07234e-08 -1.44305e-08 -1.01092e-06)
(-3.12358e-08 5.64667e-08 -1.05533e-06)
(2.78525e-08 -2.96064e-08 -9.23962e-07)
(7.17719e-10 2.18798e-09 -6.22558e-07)
(-6.745e-08 -6.62477e-08 -6.71058e-07)
(-4.08069e-09 2.30702e-08 -1.05229e-06)
(9.50262e-08 -8.54906e-08 -6.89334e-07)
(9.50264e-08 8.54943e-08 -6.89332e-07)
(-6.7462e-08 6.62518e-08 -6.71062e-07)
(7.10467e-10 -2.19732e-09 -6.22558e-07)
(-4.07267e-09 -2.30714e-08 -1.05229e-06)
(3.14811e-08 -2.5755e-08 -6.43072e-07)
(2.5105e-07 1.21607e-07 -7.97291e-07)
(-2.49977e-07 1.25497e-07 -7.93433e-07)
(1.72518e-08 -1.51917e-07 -8.79853e-07)
(1.92873e-07 1.42851e-07 -7.68536e-07)
(-1.84679e-08 3.44603e-08 -9.26412e-07)
(6.99971e-09 -4.50857e-09 -6.27408e-07)
(-2.86718e-08 -2.30117e-08 -6.41232e-07)
(4.38274e-10 2.23133e-08 -9.43367e-07)
(2.80372e-09 -2.11572e-08 -1.04832e-06)
(2.66604e-08 -2.2648e-08 -1.05083e-06)
(1.68948e-08 -7.75841e-12 -1.06069e-06)
(2.66521e-08 2.26451e-08 -1.05082e-06)
(-1.84918e-08 -3.44813e-08 -9.2641e-07)
(-5.25327e-08 5.7354e-08 -6.52382e-07)
(-1.24235e-07 -1.08634e-07 -7.00927e-07)
(-3.74871e-08 2.57758e-10 -1.08747e-06)
(2.78119e-08 -1.20666e-07 -7.47619e-07)
(2.77989e-08 1.20656e-07 -7.47616e-07)
(-1.24233e-07 1.0862e-07 -7.00922e-07)
(-5.44728e-09 -1.60581e-11 -9.67195e-07)
(7.76964e-08 -7.56275e-08 -6.80298e-07)
(-9.20951e-08 -8.2806e-08 -6.8522e-07)
(-9.20847e-08 8.27947e-08 -6.85202e-07)
(1.59911e-09 -2.1952e-08 -1.05162e-06)
(7.76949e-08 7.56065e-08 -6.80286e-07)
(-1.68788e-09 -1.11536e-08 -9.06048e-07)
(-1.7076e-08 -7.69718e-12 -8.62294e-07)
(-2.24153e-08 -6.08478e-08 -8.4587e-07)
(-2.05825e-08 -2.68762e-08 -7.86427e-07)
(9.3177e-08 7.94988e-08 -8.90077e-07)
(-2.08491e-08 -2.05357e-08 -8.5195e-07)
(-6.93066e-09 3.86416e-12 -8.86052e-07)
(-1.54165e-07 1.43234e-12 -1.20833e-06)
(2.15909e-08 -1.01978e-11 -9.6103e-07)
(-6.18676e-08 -1.15384e-07 -7.06739e-07)
(9.6097e-08 8.29319e-08 -1.01885e-06)
(1.0293e-07 2.30781e-07 -7.63252e-07)
(2.27827e-07 -5.5687e-08 -6.64357e-07)
(1.61745e-07 1.83295e-07 -8.08187e-07)
(-4.20635e-07 -2.44889e-07 -8.4826e-07)
(2.73162e-07 2.85533e-07 -1.20964e-06)
(-4.38949e-07 -3.05228e-07 -1.28364e-06)
(-4.38933e-07 3.0519e-07 -1.28362e-06)
(-1.10867e-08 3.91242e-08 -9.0466e-07)
(-4.40332e-07 3.49943e-07 -1.53985e-06)
(9.20556e-09 2.49738e-08 -1.04896e-06)
(4.8268e-07 -4.27419e-07 -1.79597e-06)
(-5.83548e-07 4.87878e-07 -2.12382e-06)
(6.69134e-09 1.33557e-08 -1.44819e-06)
(6.73621e-07 -5.85128e-07 -2.48605e-06)
(-8.01661e-07 6.82136e-07 -2.93138e-06)
(1.26863e-09 2.61521e-09 -1.99655e-06)
(9.28088e-07 -7.97796e-07 -3.4166e-06)
(-1.08838e-06 9.35314e-07 -3.97939e-06)
(-7.91001e-09 -1.3373e-08 -2.69927e-06)
(1.24973e-06 -1.06443e-06 -4.59221e-06)
(-1.43728e-06 1.24895e-06 -5.26399e-06)
(-2.38373e-08 -4.7402e-08 -3.55322e-06)
(1.64695e-06 -1.37923e-06 -6.00279e-06)
(-1.8296e-06 1.62386e-06 -6.76285e-06)
(-4.46839e-08 -1.30207e-07 -4.53986e-06)
(2.17695e-06 -1.73094e-06 -7.57102e-06)
(-2.19162e-06 2.05212e-06 -8.54545e-06)
(-1.19163e-07 -3.53577e-07 -5.81583e-06)
(3.2899e-06 -2.22827e-06 -8.86106e-06)
(5.32485e-07 -1.02836e-06 -6.07008e-06)
(3.80301e-06 -2.28814e-06 -7.72278e-06)
(3.80295e-06 2.28801e-06 -7.72267e-06)
(-3.48228e-07 -1.36065e-07 -8.07261e-06)
(8.28292e-07 -6.22703e-07 -8.0624e-06)
(-3.06269e-07 1.18764e-06 -7.29398e-06)
(1.20325e-06 1.05962e-06 -6.77333e-06)
(5.94652e-08 -5.85772e-11 -9.69364e-06)
(-7.68407e-07 -7.52972e-07 -6.4881e-06)
(-7.68415e-07 7.52989e-07 -6.48815e-06)
(8.32739e-07 7.85549e-07 -6.53885e-06)
(-4.20598e-08 -3.94535e-11 -9.71017e-06)
(-9.84026e-07 -9.46798e-07 -6.62393e-06)
(-9.8399e-07 9.46783e-07 -6.62393e-06)
(2.63388e-07 3.82199e-07 -6.27809e-06)
(-3.11868e-07 -1.23023e-10 -9.55705e-06)
(-1.37972e-06 -2.46267e-06 -7.96484e-06)
(-1.37962e-06 2.4624e-06 -7.96466e-06)
(4.54131e-07 -1.53027e-06 -9.05044e-06)
(1.94208e-06 -1.85567e-10 -1.27692e-05)
(4.54066e-07 1.52988e-06 -9.05028e-06)
(7.3288e-07 -1.19294e-06 -9.19365e-06)
(2.1203e-06 7.5835e-07 -1.26207e-05)
(8.89678e-07 1.74662e-06 -9.15646e-06)
(1.21648e-06 1.21273e-06 -1.0638e-05)
(1.60249e-06 1.59847e-06 -9.33861e-06)
(-2.38206e-06 -2.36208e-06 -9.12821e-06)
(-1.38676e-06 1.68328e-06 -7.57086e-06)
(1.38348e-06 2.24169e-07 -8.85108e-06)
(8.89994e-07 1.42612e-07 -1.01737e-05)
(-8.21172e-10 2.40071e-08 -9.54225e-06)
(2.63354e-07 -3.82266e-07 -6.2781e-06)
(-1.57426e-07 -1.38533e-07 -5.98771e-06)
(-4.01606e-07 -3.91986e-07 -9.41605e-06)
(1.67333e-06 -1.35352e-06 -7.60223e-06)
(-1.21282e-06 7.2932e-07 -9.19692e-06)
(7.52e-07 2.09228e-06 -1.26212e-05)
(1.74666e-06 8.87304e-07 -9.16236e-06)
(9.98533e-07 1.00046e-06 -1.01748e-05)
(-5.25389e-07 -5.11636e-07 -9.24875e-06)
(-7.08568e-07 -5.27318e-11 -9.3482e-06)
(-5.25284e-07 5.11683e-07 -9.24877e-06)
(-4.01599e-07 3.92032e-07 -9.41604e-06)
(-1.3865e-06 -1.68314e-06 -7.57073e-06)
(-2.38207e-06 2.36211e-06 -9.12824e-06)
(8.8999e-07 -1.74659e-06 -9.15635e-06)
(2.12062e-06 -7.58073e-07 -1.26204e-05)
(7.33099e-07 1.19283e-06 -9.19358e-06)
(1.38369e-06 -2.24361e-07 -8.85123e-06)
(8.90148e-07 -1.42777e-07 -1.01738e-05)
(9.98674e-07 -1.00023e-06 -1.01745e-05)
(1.74657e-06 -8.87324e-07 -9.16271e-06)
(7.5169e-07 -2.09209e-06 -1.26207e-05)
(-1.21289e-06 -7.2933e-07 -9.19692e-06)
(1.67326e-06 1.35348e-06 -7.6022e-06)
(2.0882e-07 -1.39251e-06 -8.84267e-06)
(1.50621e-06 -4.98624e-07 -9.11054e-06)
(-3.85065e-08 -1.93781e-06 -1.27788e-05)
(-1.57303e-06 -4.38802e-07 -9.0631e-06)
(2.44971e-06 1.27604e-06 -7.99001e-06)
(-3.93191e-08 3.03982e-07 -9.57132e-06)
(-4.37666e-07 -2.98149e-07 -6.27614e-06)
(-2.52328e-06 1.38735e-06 -7.97366e-06)
(-4.7183e-08 -2.75318e-07 -9.20212e-06)
(-2.95719e-07 -3.31976e-07 -9.29729e-06)
(1.69479e-08 1.32203e-08 -6.03234e-06)
(1.41254e-08 -1.02598e-08 -4.78665e-06)
(6.82034e-09 -2.80613e-08 -3.70104e-06)
(3.9168e-09 -3.21175e-08 -2.77915e-06)
(2.17801e-09 -3.03988e-08 -2.03573e-06)
(2.03836e-10 -2.72289e-08 -1.47146e-06)
(-1.15858e-09 -2.29058e-08 -1.08128e-06)
(-8.61455e-09 -2.73161e-08 -1.07106e-06)
(4.19392e-07 -2.53218e-07 -1.19376e-06)
(-4.5317e-07 -2.15807e-07 -1.17793e-06)
(4.57677e-07 -1.94635e-07 -1.18224e-06)
(-4.11263e-07 -2.95637e-07 -1.189e-06)
(4.49288e-07 3.8992e-07 -1.39359e-06)
(-5.51161e-07 -4.20164e-07 -1.64012e-06)
(6.30944e-07 5.27411e-07 -1.91661e-06)
(-7.60008e-07 -5.98635e-07 -2.27664e-06)
(8.79024e-07 7.17376e-07 -2.65785e-06)
(-1.0405e-06 -8.42118e-07 -3.13015e-06)
(1.20279e-06 9.60586e-07 -3.62208e-06)
(-1.39578e-06 -1.15862e-06 -4.20908e-06)
(1.60576e-06 1.25103e-06 -4.80735e-06)
(-1.82117e-06 -1.55363e-06 -5.50686e-06)
(2.08016e-06 1.57623e-06 -6.17823e-06)
(-2.27767e-06 -2.00584e-06 -7.0064e-06)
(-3.74819e-08 3.84507e-08 -6.02797e-06)
(1.91786e-06 -1.90822e-06 -6.73121e-06)
(1.94378e-06 2.26795e-06 -6.984e-06)
(1.39992e-06 -2.50516e-06 -6.85557e-06)
(-1.11617e-06 2.34224e-06 -6.16807e-06)
(2.37058e-08 -8.69492e-11 -4.89544e-06)
(-1.11599e-06 -2.34234e-06 -6.16818e-06)
(1.08546e-06 2.02029e-06 -5.4235e-06)
(1.49806e-06 -1.81506e-06 -5.49545e-06)
(1.48517e-06 1.47175e-06 -5.33082e-06)
(-1.24999e-06 -1.22511e-06 -4.71903e-06)
(-1.21584e-06 1.61949e-06 -4.81733e-06)
(3.78973e-08 8.97775e-09 -3.68966e-06)
(1.11615e-06 1.1028e-06 -4.09275e-06)
(5.22976e-09 4.49924e-08 -3.68416e-06)
(1.606e-06 -1.25091e-06 -4.80751e-06)
(-2.27532e-08 -4.94343e-08 -4.20785e-06)
(-1.83875e-06 -8.27606e-07 -4.79122e-06)
(1.79371e-06 -9.4707e-07 -4.77459e-06)
(-3.78163e-09 4.43455e-08 -3.76361e-06)
(-1.56192e-06 8.7158e-07 -4.16919e-06)
(1.44474e-06 9.52404e-07 -4.16665e-06)
(-1.68344e-06 -1.05887e-06 -4.8001e-06)
(-4.11355e-09 -5.51761e-08 -4.21224e-06)
(-2.03607e-06 1.16483e-06 -5.44337e-06)
(-7.26712e-09 2.64174e-08 -4.8804e-06)
(2.31836e-06 -1.18379e-06 -6.13369e-06)
(-2.52972e-06 1.48541e-06 -6.89592e-06)
(-1.29748e-08 -6.30229e-08 -6.11602e-06)
(-2.9718e-06 -1.32609e-06 -7.56203e-06)
(-9.13735e-08 -5.6288e-09 -6.74985e-06)
(1.36669e-06 9.14656e-08 -7.14996e-06)
(-6.31742e-08 -1.08697e-06 -1.12886e-05)
(2.08872e-07 1.39238e-06 -8.84267e-06)
(-2.52327e-06 -1.3874e-06 -7.97361e-06)
(-4.37647e-07 2.98071e-07 -6.2761e-06)
(8.03777e-08 1.03083e-07 -9.32148e-06)
(-3.11983e-08 -1.0887e-08 -7.13905e-06)
(-2.88139e-08 -4.58017e-11 -6.35305e-06)
(-2.44828e-08 2.57205e-08 -5.95485e-06)
(-1.53105e-08 1.37724e-09 -4.73639e-06)
(-7.81962e-09 -1.76486e-08 -3.66163e-06)
(-3.58177e-09 -2.37981e-08 -2.74883e-06)
(-1.42438e-09 -2.39726e-08 -2.01272e-06)
(-3.77831e-10 -2.22823e-08 -1.45447e-06)
(3.34009e-10 -1.88235e-08 -1.0682e-06)
(2.80578e-09 2.11467e-08 -1.04831e-06)
(4.23208e-10 -2.23178e-08 -9.43368e-07)
(-2.86765e-08 2.30186e-08 -6.41241e-07)
(1.58219e-09 2.19399e-08 -1.05161e-06)
(6.99986e-09 4.52513e-09 -6.27402e-07)
(1.9287e-07 -1.42853e-07 -7.68541e-07)
(1.72426e-08 1.51911e-07 -8.79842e-07)
(-7.74073e-09 -1.03568e-07 -1.23243e-06)
(-2.22482e-07 7.24035e-08 -9.19338e-07)
(1.95952e-07 4.11249e-08 -9.13737e-07)
(-1.95614e-07 3.3603e-08 -9.0858e-07)
(2.15322e-07 9.05261e-08 -9.27915e-07)
(-8.74287e-08 6.38928e-08 -8.74326e-07)
(4.19775e-07 -1.75873e-08 -6.89758e-07)
(-1.11986e-07 -2.43026e-07 -9.72575e-07)
(2.8029e-07 4.02431e-07 -1.18631e-06)
(1.98137e-08 7.73792e-10 -1.06465e-06)
(-3.68365e-07 -4.54045e-07 -1.41633e-06)
(-3.71043e-07 3.68026e-07 -1.3376e-06)
(3.42938e-07 -3.11532e-07 -1.15824e-06)
(1.12149e-08 -2.65667e-08 -1.05394e-06)
(-6.96854e-09 1.55454e-08 -1.13541e-06)
(-4.60713e-08 1.23815e-07 -9.77726e-07)
(1.25819e-09 1.25898e-07 -9.81426e-07)
(5.23352e-08 1.24906e-07 -9.77783e-07)
(1.03625e-07 7.80196e-08 -9.63189e-07)
(1.32147e-07 8.74031e-08 -9.14823e-07)
(-9.50215e-10 4.67734e-09 -1.13943e-06)
(1.93982e-08 3.37201e-08 -1.15937e-06)
(5.17065e-08 3.8423e-08 -9.96062e-07)
(5.8284e-09 1.61868e-08 -1.13908e-06)
(-9.48073e-09 -2.32056e-08 -1.55161e-06)
(-5.09997e-09 3.08699e-09 -1.5821e-06)
(-1.56336e-08 -9.42196e-09 -1.54849e-06)
(-2.65709e-08 -1.99398e-08 -2.14002e-06)
(-2.20663e-08 -1.82267e-08 -2.19941e-06)
(1.27432e-08 1.31492e-08 -1.86695e-06)
(1.67695e-08 1.8127e-08 -1.34361e-06)
(6.22622e-09 2.01309e-08 -1.30848e-06)
(-4.68369e-07 3.36891e-07 -1.37924e-06)
(5.05182e-07 2.96294e-07 -1.38543e-06)
(-6.13362e-07 -3.10202e-07 -1.62613e-06)
(6.18787e-07 -2.7108e-07 -1.6268e-06)
(-2.29782e-09 1.66459e-08 -1.23352e-06)
(-5.12018e-07 2.67737e-07 -1.37803e-06)
(-1.93931e-12 -2.98783e-08 -1.07916e-06)
(1.87681e-10 2.18796e-08 -1.14109e-06)
(3.29047e-10 -2.02384e-08 -1.55281e-06)
(6.87184e-10 -5.50423e-08 -2.16531e-06)
(-1.6564e-08 -5.59333e-08 -2.16215e-06)
(-2.42707e-08 -9.39566e-08 -2.96814e-06)
(-4.30673e-08 -4.16778e-08 -3.01614e-06)
(-4.06713e-08 -3.25653e-08 -2.92284e-06)
(-5.91003e-08 -4.88556e-08 -3.8986e-06)
(-7.41771e-08 -7.73733e-08 -4.03593e-06)
(3.33669e-10 -9.97672e-10 -3.49719e-06)
(8.59369e-09 7.75671e-09 -2.58172e-06)
(8.84181e-09 1.68083e-08 -2.51404e-06)
(-9.22359e-07 6.02027e-07 -2.64505e-06)
(9.86945e-07 5.47619e-07 -2.64144e-06)
(-1.16315e-06 -6.32684e-07 -3.10371e-06)
(1.17136e-06 -5.47618e-07 -3.0941e-06)
(-8.54545e-09 3.22802e-08 -2.36181e-06)
(-1.006e-06 4.77939e-07 -2.63924e-06)
(8.54942e-07 -3.8742e-07 -2.25429e-06)
(-5.41316e-09 2.45794e-08 -1.71059e-06)
(-7.21853e-07 3.55702e-07 -1.90009e-06)
(-5.04204e-10 -3.08769e-08 -1.47882e-06)
(7.09793e-07 4.03501e-07 -1.90531e-06)
(-8.48123e-07 -4.47352e-07 -2.25813e-06)
(2.07191e-09 2.59463e-08 -1.71483e-06)
(-6.61217e-07 4.45751e-07 -1.90369e-06)
(5.70338e-07 -3.53449e-07 -1.63796e-06)
(2.16069e-09 1.79427e-08 -1.23631e-06)
(2.83673e-10 3.14859e-09 -1.37199e-06)
(-1.21804e-08 -1.08034e-08 -1.31321e-06)
(-4.40283e-07 -3.49877e-07 -1.53981e-06)
(1.43891e-08 4.36037e-09 -8.89191e-07)
(3.46123e-07 3.2106e-07 -1.34962e-06)
(1.48545e-08 -4.52653e-08 -8.10363e-07)
(-4.11016e-07 -2.74861e-07 -1.11633e-06)
(-2.22947e-07 -5.74078e-08 -6.71223e-07)
(7.2449e-08 -2.32459e-08 -8.10054e-07)
(-1.98689e-08 -3.86409e-09 -9.6144e-07)
(-1.03431e-09 7.88817e-09 -9.92799e-07)
(-3.67943e-09 2.02503e-08 -9.46477e-07)
(5.19682e-09 4.26608e-08 -9.80076e-07)
(-6.19651e-09 4.13068e-08 -9.79534e-07)
(8.61803e-09 -1.0611e-07 -1.22769e-06)
(-4.82218e-08 4.01857e-08 -1.02136e-06)
(-8.31532e-08 7.73986e-08 -9.59044e-07)
(-5.67912e-08 4.8652e-08 -9.47415e-07)
(6.79287e-09 7.29538e-09 -1.15161e-06)
(-2.86579e-08 2.44703e-08 -1.13639e-06)
(-2.10654e-08 2.05595e-08 -1.36387e-06)
(-7.75488e-09 1.92278e-08 -1.3066e-06)
(9.99514e-09 -2.35283e-08 -1.54416e-06)
(1.95509e-08 -5.69858e-08 -2.15226e-06)
(3.01455e-08 -9.6664e-08 -2.95784e-06)
(9.43174e-10 -9.58797e-08 -2.97546e-06)
(9.18934e-10 -1.55543e-07 -3.98342e-06)
(-3.46794e-08 -1.47799e-07 -3.97007e-06)
(-5.41145e-08 -2.40753e-07 -5.16141e-06)
(-1.29037e-07 -1.4966e-07 -5.25721e-06)
(-8.40207e-08 -7.22968e-08 -5.05695e-06)
(-1.56679e-07 -1.43479e-07 -6.35364e-06)
(-2.88933e-07 -3.48983e-07 -6.70173e-06)
(-6.26244e-08 -5.55877e-08 -5.9037e-06)
(-1.73711e-08 -1.84909e-08 -4.61247e-06)
(6.16242e-09 2.57432e-09 -4.51155e-06)
(-1.68338e-06 1.05891e-06 -4.79991e-06)
(1.79363e-06 9.47218e-07 -4.77448e-06)
(-2.03613e-06 -1.16476e-06 -5.44331e-06)
(2.03802e-06 -1.0217e-06 -5.40392e-06)
(-2.27838e-08 4.94267e-08 -4.2079e-06)
(-1.8386e-06 8.27671e-07 -4.79117e-06)
(1.56971e-06 -7.56969e-07 -4.1499e-06)
(-1.33503e-08 4.01541e-08 -3.19598e-06)
(-1.37621e-06 6.35817e-07 -3.60191e-06)
(-1.91191e-09 -4.20335e-08 -2.81716e-06)
(1.34698e-06 7.30527e-07 -3.59856e-06)
(-1.56188e-06 -8.71479e-07 -4.1692e-06)
(-6.30407e-10 4.37088e-08 -3.20111e-06)
(-1.26215e-06 8.067e-07 -3.60944e-06)
(1.07968e-06 -6.94861e-07 -3.10876e-06)
(1.2231e-09 3.44379e-08 -2.3669e-06)
(4.9682e-10 5.946e-09 -2.61531e-06)
(8.3448e-10 4.58519e-09 -1.89867e-06)
(-1.32391e-08 -1.44265e-08 -1.81278e-06)
(-5.83528e-07 -4.87812e-07 -2.12381e-06)
(7.84531e-09 2.41816e-09 -1.22342e-06)
(4.82687e-07 4.27439e-07 -1.79593e-06)
(9.24591e-09 -2.49662e-08 -1.04895e-06)
(3.39478e-08 -7.19968e-09 -1.06606e-06)
(-5.59184e-07 -4.26433e-07 -1.74826e-06)
(6.18436e-07 5.22822e-07 -2.05923e-06)
(-7.62234e-07 -5.95949e-07 -2.41552e-06)
(-7.62246e-07 5.95909e-07 -2.41545e-06)
(-1.82184e-09 1.24105e-08 -1.69242e-06)
(8.6784e-07 -7.19053e-07 -2.83573e-06)
(8.67442e-09 6.99863e-09 -2.02985e-06)
(-1.04097e-06 8.22976e-07 -3.31215e-06)
(-1.42747e-09 4.46806e-09 -2.31028e-06)
(1.18599e-06 -9.72541e-07 -3.84822e-06)
(-2.39924e-09 8.44378e-09 -2.74197e-06)
(-1.38796e-06 1.10915e-06 -4.44333e-06)
(-1.47538e-10 -1.15705e-08 -3.08083e-06)
(1.57824e-06 -1.27873e-06 -5.08971e-06)
(-3.04422e-08 6.97826e-09 -3.60269e-06)
(-1.77538e-06 1.45185e-06 -5.801e-06)
(1.0084e-08 -5.65666e-08 -3.99524e-06)
(2.0571e-06 -1.62212e-06 -6.52414e-06)
(-1.2137e-07 -8.14576e-09 -4.5872e-06)
(-2.12124e-06 1.84291e-06 -7.37602e-06)
(6.40687e-08 -2.09622e-07 -5.02487e-06)
(2.70239e-06 -1.92962e-06 -7.96164e-06)
(-4.58073e-07 -1.58815e-07 -5.70263e-06)
(-2.10325e-06 2.1657e-06 -9.27461e-06)
(-2.82205e-07 -1.03901e-10 -7.43092e-06)
(-2.10319e-06 -2.16578e-06 -9.27457e-06)
(5.32495e-07 1.02817e-06 -6.07007e-06)
(3.2899e-06 2.22844e-06 -8.86076e-06)
(-1.1908e-07 3.53463e-07 -5.81575e-06)
(-2.19149e-06 -2.05201e-06 -8.54552e-06)
(-9.19647e-08 -2.28627e-08 -5.01207e-06)
(2.1769e-06 1.73091e-06 -7.57092e-06)
(-4.45092e-08 1.30101e-07 -4.53979e-06)
(-1.82955e-06 -1.62374e-06 -6.76285e-06)
(-4.75462e-08 -7.36624e-09 -4.01344e-06)
(1.64706e-06 1.37944e-06 -6.00272e-06)
(-2.36833e-08 4.73316e-08 -3.55323e-06)
(-1.43704e-06 -1.24878e-06 -5.26405e-06)
(-2.15636e-08 -3.49125e-09 -3.09769e-06)
(1.24982e-06 1.06459e-06 -4.5922e-06)
(-7.79151e-09 1.32641e-08 -2.69921e-06)
(-1.08832e-06 -9.35238e-07 -3.97943e-06)
(-7.94175e-09 -9.46966e-10 -2.3214e-06)
(9.28103e-07 7.9788e-07 -3.4165e-06)
(1.37599e-09 -2.65807e-09 -1.99652e-06)
(-8.01633e-07 -6.82057e-07 -2.93139e-06)
(6.85995e-10 9.08718e-10 -1.69702e-06)
(6.73626e-07 5.85183e-07 -2.48601e-06)
(6.77671e-09 -1.33534e-08 -1.44818e-06)
(1.81392e-08 -6.03426e-09 -1.47258e-06)
(-2.40276e-08 -2.2631e-08 -1.86221e-06)
(-2.51577e-08 -1.65695e-08 -1.36312e-06)
(-2.39244e-08 -5.95586e-09 -1.03684e-06)
(1.28044e-07 6.20499e-08 -9.01084e-07)
(1.14016e-08 -2.49253e-11 -8.6975e-07)
(-5.01553e-08 -1.91243e-12 -9.34277e-07)
(-6.20321e-08 -5.20406e-11 -1.16829e-06)
(-6.63242e-08 -1.44282e-12 -1.55756e-06)
(-7.64018e-08 2.67285e-11 -2.13222e-06)
(-9.12065e-08 4.65167e-11 -2.89962e-06)
(-9.88421e-08 1.13522e-10 -3.85706e-06)
(-6.75962e-08 3.96715e-10 -4.98902e-06)
(4.97711e-08 1.27469e-10 -6.24852e-06)
(1.90594e-07 -6.96173e-11 -7.35562e-06)
(-1.611e-07 -1.88421e-10 -8.23528e-06)
(-1.33942e-06 6.34846e-07 -8.16314e-06)
(-1.33944e-06 -6.34973e-07 -8.16307e-06)
(-1.3835e-06 -8.85874e-07 -7.65401e-06)
(-1.14079e-06 -8.46534e-07 -8.83703e-06)
(-4.17126e-07 -2.54755e-07 -7.25638e-06)
(-1.49784e-07 -4.53836e-07 -6.56247e-06)
(-6.17642e-07 -1.42032e-06 -8.60977e-06)
(1.02011e-06 4.25426e-06 -5.9839e-06)
(1.67539e-06 -4.0026e-07 -7.28235e-06)
(2.96643e-08 2.17399e-08 -6.75582e-06)
(6.45561e-09 -1.75066e-08 -6.93836e-06)
(1.00882e-07 -2.50291e-08 -6.7341e-06)
(-4.5802e-07 1.58859e-07 -5.70253e-06)
(2.70223e-06 1.92971e-06 -7.96152e-06)
(6.41072e-08 2.09537e-07 -5.02486e-06)
(-2.12123e-06 -1.84287e-06 -7.37605e-06)
(-1.91882e-07 -4.22496e-11 -5.90116e-06)
(-5.57624e-08 -4.37646e-11 -6.0658e-06)
(-5.61735e-08 -4.91828e-11 -4.80439e-06)
(1.02166e-08 5.65362e-08 -3.99518e-06)
(-1.77535e-06 -1.45187e-06 -5.80105e-06)
(2.05707e-06 1.62212e-06 -6.52397e-06)
(-1.21341e-07 8.15059e-09 -4.58724e-06)
(8.34871e-10 -1.82001e-08 -5.62043e-06)
(-1.63022e-08 -2.17623e-08 -4.41729e-06)
(-3.04415e-08 -7.00694e-09 -3.60266e-06)
(1.57805e-06 1.27873e-06 -5.0896e-06)
(-7.86298e-11 1.15345e-08 -3.08084e-06)
(-1.38787e-06 -1.10923e-06 -4.44347e-06)
(-3.44345e-08 -5.92673e-12 -3.59652e-06)
(-5.03867e-08 -3.87965e-11 -3.71183e-06)
(-4.24266e-08 -4.67627e-11 -2.78804e-06)
(-3.3062e-08 -3.92802e-11 -2.04487e-06)
(-1.76152e-09 -1.24975e-08 -1.69241e-06)
(8.67847e-07 7.19014e-07 -2.83561e-06)
(-1.04096e-06 -8.23038e-07 -3.31226e-06)
(1.18596e-06 9.72535e-07 -3.8481e-06)
(-2.37046e-09 -8.4188e-09 -2.74189e-06)
(-1.81706e-08 -2.10635e-08 -3.3653e-06)
(-1.59231e-08 -1.8106e-08 -2.49469e-06)
(1.83938e-09 -3.77121e-11 -2.15283e-06)
(9.40514e-10 -2.355e-11 -1.55754e-06)
(-1.00566e-09 -8.77424e-12 -1.14972e-06)
(-1.40095e-08 -1.48622e-11 -1.09791e-06)
(-1.10608e-08 -3.91731e-08 -9.04674e-07)
(4.30128e-07 3.83186e-07 -1.51556e-06)
(2.77271e-08 -1.29222e-11 -1.07071e-06)
(4.30134e-07 -3.83238e-07 -1.5156e-06)
(3.38806e-08 7.18705e-09 -1.06608e-06)
(-5.59187e-07 4.26386e-07 -1.74824e-06)
(-3.76625e-09 2.06958e-08 -1.2264e-06)
(6.18469e-07 -5.22897e-07 -2.05931e-06)
(1.8142e-08 6.01181e-09 -1.4726e-06)
(-1.32342e-08 1.43766e-08 -1.81279e-06)
(-2.3086e-08 -2.01977e-11 -1.48266e-06)
(-3.74166e-09 -2.07649e-08 -1.22638e-06)
(1.07598e-08 -1.76876e-11 -1.43705e-06)
(-1.21615e-08 1.07661e-08 -1.31322e-06)
(-1.98552e-08 3.84727e-09 -9.61448e-07)
(-4.11031e-07 2.74874e-07 -1.11634e-06)
(1.48635e-08 4.52552e-08 -8.10384e-07)
(3.46126e-07 -3.21057e-07 -1.34966e-06)
(7.24141e-08 2.32323e-08 -8.10079e-07)
(2.73144e-07 -2.85552e-07 -1.20966e-06)
(-6.18673e-08 1.15386e-07 -7.06751e-07)
(-4.20663e-07 2.44885e-07 -8.4826e-07)
(3.42153e-08 3.9122e-13 -8.89739e-07)
(1.6174e-07 -1.83283e-07 -8.08196e-07)
(2.27808e-07 5.56862e-08 -6.64355e-07)
(1.02926e-07 -2.30823e-07 -7.63261e-07)
(2.7214e-07 -6.53294e-08 -7.90653e-07)
(9.60958e-08 -8.29283e-08 -1.01887e-06)
(3.37099e-08 -9.65449e-09 -8.16614e-07)
(-8.63918e-08 -5.30369e-08 -7.79926e-07)
(4.81224e-08 -2.71381e-08 -9.18146e-07)
(-2.08571e-08 2.05337e-08 -8.51962e-07)
(-2.24093e-08 6.08441e-08 -8.45877e-07)
(9.31752e-08 -7.95052e-08 -8.9009e-07)
(-2.05962e-08 2.68881e-08 -7.86363e-07)
(1.41921e-08 -8.24605e-08 -9.10416e-07)
(7.26835e-10 6.09056e-08 -8.54838e-07)
(8.73772e-10 -7.68275e-12 -8.77942e-07)
(7.15304e-10 -6.09033e-08 -8.54813e-07)
(2.42483e-10 -2.99329e-08 -7.87077e-07)
(8.55146e-10 1.63496e-07 -1.23863e-06)
(1.41957e-08 8.24635e-08 -9.10426e-07)
(-1.6819e-09 1.11584e-08 -9.06048e-07)
(4.81238e-08 2.71413e-08 -9.18139e-07)
(-1.22312e-08 -2.05305e-08 -7.14182e-07)
(-8.63915e-08 5.3031e-08 -7.79909e-07)
(3.37256e-08 9.65391e-09 -8.16618e-07)
(7.13306e-10 1.1464e-08 -9.06428e-07)
(2.76565e-08 -5.83904e-08 -8.40719e-07)
(2.35218e-08 -2.47282e-08 -7.82625e-07)
(-1.4918e-08 8.2243e-08 -9.11884e-07)
(-9.12389e-08 7.66299e-08 -8.87634e-07)
(2.75697e-08 -1.75412e-08 -8.4779e-07)
(-4.7834e-08 1.96641e-08 -8.97686e-07)
(8.91445e-08 1.0878e-07 -6.73305e-07)
(2.72608e-07 -1.57442e-07 -9.08111e-07)
(-1.56981e-07 1.46902e-07 -9.03956e-07)
(5.41881e-08 -2.16032e-08 -1.18965e-06)
(2.49919e-08 -8.18028e-13 -8.57012e-07)
(1.39135e-08 -3.12961e-13 -9.58906e-07)
(1.16519e-08 2.82079e-12 -1.04076e-06)
(1.89097e-09 -3.76819e-12 -1.04935e-06)
(-1.7781e-10 -4.46168e-12 -9.76935e-07)
(1.66329e-10 -8.5977e-12 -1.14734e-06)
(-6.58483e-10 -5.31248e-12 -1.555e-06)
(-1.69913e-09 -5.06113e-12 -2.1505e-06)
(-3.9956e-09 -1.94403e-11 -2.93514e-06)
(2.04946e-09 -3.48551e-11 -2.93755e-06)
(2.58531e-09 -1.12305e-11 -3.91064e-06)
(6.50379e-09 -2.22478e-11 -5.05579e-06)
(1.8961e-08 -4.46478e-11 -6.36571e-06)
(-1.52645e-07 -3.39862e-11 -9.00987e-06)
(-3.89184e-07 -4.7208e-11 -8.27921e-06)
(1.61234e-06 -1.12574e-10 -1.22153e-05)
(-3.06265e-07 -1.18776e-06 -7.29395e-06)