/*--------------------------------*- C++ -*----------------------------------*\
| =========                 |                                                 |
| \\      /  F ield         | OpenFOAM: The Open Source CFD Toolbox           |
|  \\    /   O peration     | Version:  2306                                  |
|   \\  /    A nd           | Website:  www.openfoam.com                      |
|    \\/     M anipulation  |                                                 |
\*---------------------------------------------------------------------------*/
FoamFile
{
    version     2.0;
    format      ascii;
    arch        "LSB;label=32;scalar=64";
    class       volScalarField;
    location    "2.6";
    object      gradTz;
}
// * * * * * * * * * * * * * * * * * * * * * * * * * * * * * * * * * * * * * //

dimensions      [0 -1 0 1 0 0 0];

internalField   nonuniform List<scalar> 
2658
(
-0.0763948
-0.07403
-0.0566047
-0.0515648
-0.0634543
-0.0650314
-0.0596936
-0.0575318
-0.0515213
-0.0648394
-0.0636985
-0.0500718
-0.0665519
-0.0621111
-0.0644444
-0.0662829
-0.0634952
-0.0661332
-0.0643928
-0.0613039
-0.0654719
-0.0589692
-0.0675044
-0.0520004
-0.0812313
-0.065327
-0.0582714
-0.0689977
-0.070293
-0.0575833
-0.0702927
-0.058272
-0.0653266
-0.0675047
-0.0812313
-0.0520003
-0.067358
-0.0933565
-0.0589681
-0.065474
-0.0613063
-0.0643933
-0.066131
-0.0965852
-0.0618022
-0.0611108
-0.0636996
-0.0964847
-0.0662833
-0.0644438
-0.0621087
-0.0665526
-0.0595643
-0.0966626
-0.0666121
-0.0645365
-0.0964886
-0.0613922
-0.0523503
-0.066197
-0.0964912
-0.0645382
-0.0666094
-0.0966619
-0.0628344
-0.0501709
-0.0635312
-0.0576353
-0.0643534
-0.0643515
-0.0523948
-0.0585927
-0.0457561
-0.052949
-0.040975
-0.0523514
-0.0528076
-0.0409219
-0.0470667
-0.046188
-0.0528031
-0.0457416
-0.0583049
-0.0598832
-0.0485636
-0.0384107
-0.0296429
-0.0222329
-0.0162715
-0.0117574
-0.00864049
-0.00901988
-0.00789715
-0.00651789
-0.00711187
-0.00753208
-0.00697904
-0.010587
-0.0069844
-0.00708729
-0.0106486
-0.00717512
-0.00764616
-0.00863817
-0.00729557
-0.00782889
-0.00557601
-0.00929472
-0.00610404
-0.00933427
-0.00866015
-0.00707096
-0.00973628
-0.00707072
-0.0086602
-0.00933402
-0.00729556
-0.00782893
-0.00764612
-0.00863815
-0.00717514
-0.0106482
-0.00708719
-0.00698426
-0.0067815
-0.00681457
-0.0065176
-0.00753209
-0.00697884
-0.00711198
-0.0106024
-0.00708482
-0.00849798
-0.00702985
-0.00921891
-0.00646486
-0.00624686
-0.00731096
-0.00634523
-0.00634546
-0.00624667
-0.00646484
-0.00718073
-0.00764261
-0.00961305
-0.00763906
-0.00888095
-0.00849979
-0.00608999
-0.00612058
-0.00581197
-0.00820417
-0.00796421
-0.00515586
-0.00691392
-0.00650802
-0.00589643
-0.00649681
-0.0061423
-0.00635562
-0.00655441
-0.00629787
-0.00655903
-0.00636073
-0.00611915
-0.00647429
-0.00589825
-0.00675766
-0.0099919
-0.00830514
-0.0104898
-0.0125137
-0.0146906
-0.0172342
-0.0203799
-0.0238839
-0.0279918
-0.0325281
-0.0375809
-0.0431625
-0.0490513
-0.0555316
-0.0621717
-0.0673338
-0.0652211
-0.0640339
-0.0646335
-0.06484
-0.0634538
-0.0515638
-0.0650325
-0.0635291
-0.0501703
-0.0628345
-0.0500721
-0.081845
-0.0485638
-0.0384105
-0.0296426
-0.0222326
-0.0162713
-0.0117572
-0.00864037
-0.00901988
-0.00789711
-0.00532101
-0.00573554
-0.00899389
-0.00589174
-0.00589173
-0.00573557
-0.00532101
-0.00899394
-0.00549634
-0.00681446
-0.00678147
-0.00752011
-0.00656868
-0.00791805
-0.00536246
-0.00548061
-0.00806297
-0.00896001
-0.00898148
-0.00906576
-0.00898136
-0.00791804
-0.00557591
-0.00599083
-0.00929462
-0.00638991
-0.00638988
-0.00599078
-0.00826663
-0.00581452
-0.00585658
-0.00585643
-0.00898823
-0.00581441
-0.007744
-0.00737003
-0.00722966
-0.0067216
-0.00760749
-0.00728162
-0.00757309
-0.0103276
-0.00821393
-0.0060405
-0.00870813
-0.00652352
-0.00567827
-0.00690758
-0.00725008
-0.0103388
-0.0109713
-0.0109711
-0.00773213
-0.0131611
-0.00896544
-0.0153502
-0.0181523
-0.0123777
-0.0212483
-0.0250545
-0.0170646
-0.0292017
-0.0340119
-0.0230707
-0.0392497
-0.0449914
-0.0303694
-0.0513059
-0.0578022
-0.0388022
-0.0647096
-0.0730381
-0.0497079
-0.0757356
-0.051881
-0.0660067
-0.0660057
-0.0689967
-0.0689094
-0.0623417
-0.0578917
-0.0828516
-0.0554539
-0.0554543
-0.0558876
-0.0829929
-0.0566148
-0.0566148
-0.0536589
-0.0816842
-0.0680756
-0.068074
-0.0773542
-0.109138
-0.0773528
-0.0785782
-0.10787
-0.0782603
-0.0909228
-0.0798171
-0.0780189
-0.0647082
-0.0756502
-0.0869546
-0.0815577
-0.053659
-0.051177
-0.0804791
-0.0649763
-0.0786061
-0.107874
-0.0783108
-0.0869638
-0.0790492
-0.0798991
-0.0790493
-0.080479
-0.0647071
-0.0780192
-0.0782594
-0.107867
-0.0785776
-0.0756515
-0.0869554
-0.0869616
-0.0783138
-0.107869
-0.0786062
-0.0649761
-0.0755784
-0.0778679
-0.109221
-0.0774624
-0.0682907
-0.0818062
-0.0536422
-0.0681509
-0.0786506
-0.079464
-0.0515585
-0.0409115
-0.0316328
-0.0237534
-0.0173994
-0.0125766
-0.00924171
-0.0091544
-0.0102031
-0.0100678
-0.0101046
-0.0101624
-0.011911
-0.0140181
-0.0163813
-0.0194584
-0.0227166
-0.0267534
-0.0309579
-0.035975
-0.0410885
-0.0470671
-0.0528054
-0.0598837
-0.0515211
-0.0575317
-0.0596923
-0.0585946
-0.0527186
-0.0418414
-0.0527195
-0.0463547
-0.0469697
-0.0455626
-0.0403336
-0.0411737
-0.0315355
-0.0349808
-0.0314886
-0.0410898
-0.0359646
-0.0409506
-0.0408085
-0.0321676
-0.0356341
-0.0356124
-0.0410265
-0.0360021
-0.0465245
-0.0417128
-0.0524247
-0.0589394
-0.0522737
-0.0646327
-0.057691
-0.0611108
-0.0964839
-0.0755783
-0.0681505
-0.0536419
-0.0796708
-0.0610176
-0.0542996
-0.0508961
-0.0404819
-0.031296
-0.0234943
-0.0172027
-0.0124314
-0.00912992
-0.00895989
-0.00806298
-0.00548069
-0.00898814
-0.00536241
-0.00656873
-0.00752002
-0.0105336
-0.00785759
-0.00780972
-0.00776564
-0.00793089
-0.00747288
-0.00589537
-0.0083126
-0.0101394
-0.00909959
-0.0121054
-0.0114325
-0.00989944
-0.009008
-0.00970436
-0.00835663
-0.00838825
-0.00835712
-0.00823238
-0.007819
-0.00973872
-0.00990911
-0.00851335
-0.0097357
-0.0132616
-0.0135222
-0.013235
-0.0182908
-0.0187984
-0.0159568
-0.0114839
-0.0111836
-0.0117883
-0.0118413
-0.0138986
-0.0139042
-0.0105429
-0.011778
-0.00922358
-0.00975292
-0.0132718
-0.018507
-0.0184799
-0.0253687
-0.025779
-0.0249816
-0.0333214
-0.0344951
-0.0298905
-0.0220659
-0.0214875
-0.0226073
-0.0225764
-0.0265275
-0.0264453
-0.0201864
-0.0225576
-0.0192674
-0.0146204
-0.0162401
-0.0126395
-0.0162847
-0.0193003
-0.0146567
-0.0162708
-0.0139997
-0.0105667
-0.0117264
-0.011224
-0.0131608
-0.00759992
-0.0115352
-0.00692618
-0.00954124
-0.00573695
-0.00692354
-0.00821743
-0.00848546
-0.00808955
-0.00837672
-0.00837208
-0.0104931
-0.0087296
-0.00819696
-0.00809756
-0.00984281
-0.00971274
-0.011657
-0.0111675
-0.0131979
-0.0183954
-0.0252807
-0.0254312
-0.0340463
-0.0339322
-0.0441146
-0.0449334
-0.0432218
-0.0543046
-0.0572797
-0.050459
-0.0394228
-0.0385603
-0.0410249
-0.0408075
-0.046524
-0.0461874
-0.0359649
-0.0409502
-0.0354692
-0.0273161
-0.0307856
-0.0240783
-0.0307569
-0.0356342
-0.0273599
-0.0308499
-0.0265706
-0.0202299
-0.022353
-0.0162279
-0.0154938
-0.0181522
-0.0104566
-0.0153498
-0.00896541
-0.00911166
-0.0149424
-0.0176002
-0.0206455
-0.0206448
-0.0144651
-0.024237
-0.0173491
-0.028309
-0.019746
-0.0328908
-0.0234357
-0.0379772
-0.0263319
-0.0435018
-0.0307922
-0.0495812
-0.0341473
-0.0557619
-0.0392069
-0.0630429
-0.0429476
-0.0680482
-0.0487405
-0.0792702
-0.0635121
-0.0792698
-0.0518809
-0.075733
-0.0497073
-0.0730387
-0.0428382
-0.0647088
-0.0388016
-0.0578021
-0.0343029
-0.0513053
-0.0303695
-0.0449919
-0.026476
-0.0392496
-0.0230701
-0.0340122
-0.019841
-0.0292009
-0.0170643
-0.0250547
-0.0145044
-0.0212479
-0.0123776
-0.0125862
-0.0159163
-0.0116506
-0.00886185
-0.00770157
-0.00743376
-0.00798528
-0.00998538
-0.0133125
-0.0182241
-0.024783
-0.0329663
-0.0426412
-0.0534062
-0.0628686
-0.070387
-0.0697704
-0.0697698
-0.0654189
-0.0755301
-0.0620204
-0.0560895
-0.0735878
-0.0511444
-0.0622423
-0.057742
-0.0593022
-0.0575564
-0.0487396
-0.0680472
-0.0429475
-0.0630431
-0.0504373
-0.0518444
-0.0410632
-0.0341469
-0.0495816
-0.0557604
-0.0392072
-0.0480378
-0.0377547
-0.030792
-0.0435008
-0.026332
-0.0379784
-0.0307395
-0.0317251
-0.0238294
-0.0174775
-0.0144651
-0.024236
-0.0283099
-0.0328897
-0.023435
-0.0287632
-0.0213222
-0.0184003
-0.0133123
-0.00982664
-0.00938382
-0.00773226
-0.0129535
-0.00915138
-0.0129538
-0.00911184
-0.0149422
-0.010482
-0.017601
-0.0125863
-0.015494
-0.0126723
-0.0104819
-0.0122825
-0.0112241
-0.0082175
-0.00954139
-0.00692636
-0.0115355
-0.00692375
-0.010339
-0.0060406
-0.00725009
-0.0076046
-0.00690766
-0.00567825
-0.0065236
-0.00675772
-0.00870829
-0.0069796
-0.00666604
-0.0078474
-0.00728173
-0.00722972
-0.00760761
-0.00672105
-0.00778133
-0.00730631
-0.00750378
-0.00730609
-0.00672716
-0.0105865
-0.00778142
-0.007744
-0.00784734
-0.00610412
-0.00666589
-0.00697964
-0.00774725
-0.00718563
-0.0066891
-0.00779388
-0.00758662
-0.00724607
-0.00767253
-0.00575475
-0.00776164
-0.00772612
-0.0101679
-0.00732489
-0.00819578
-0.00889542
-0.00896883
-0.00834987
-0.00980632
-0.0132906
-0.0183804
-0.0250867
-0.0251073
-0.0334242
-0.0432118
-0.0544078
-0.0770075
-0.0707625
-0.104404
-0.0623415
-0.0689097
-0.0936126
-0.0781809
-0.0781801
-0.0936135
-0.0994896
-0.0614189
-0.0799531
-0.0796169
-0.0810648
-0.0521155
-0.0661673
-0.0748719
-0.0791935
-0.10829
-0.0793394
-0.091981
-0.0775546
-0.0857785
-0.0781305
-0.0805882
-0.0807153
-0.086579
-0.103477
-0.0807175
-0.0994892
-0.0799554
-0.0614175
-0.0546585
-0.0810647
-0.0661671
-0.0521153
-0.0529542
-0.0818067
-0.0682921
-0.077462
-0.109222
-0.0778695
-0.0868
-0.0802376
-0.0805884
-0.0814944
-0.0826067
-0.0546581
-0.0825873
-0.0805242
-0.0862189
-0.0802391
-0.0778985
-0.0867996
-0.0770299
-0.0815579
-0.0511773
-0.0796703
-0.0610179
-0.0576919
-0.061112
-0.056277
-0.0442928
-0.0495731
-0.0529104
-0.0524233
-0.0589401
-0.0583041
-0.0457405
-0.0528024
-0.0417116
-0.0496864
-0.0441705
-0.033877
-0.0386014
-0.0291591
-0.0214665
-0.0154919
-0.015515
-0.0193771
-0.0174354
-0.0162004
-0.0158298
-0.0124042
-0.0164895
-0.019419
-0.0172128
-0.0227827
-0.0220427
-0.0190291
-0.0171684
-0.0260899
-0.0235846
-0.0310161
-0.0301806
-0.0235432
-0.0349803
-0.031535
-0.0411739
-0.040333
-0.0314886
-0.0455624
-0.0409754
-0.0529502
-0.0523511
-0.0409225
-0.0519331
-0.0563365
-0.0739894
-0.0737008
-0.063495
-0.0609626
-0.0526087
-0.0646112
-0.0568562
-0.0566045
-0.0444641
-0.0341288
-0.0254909
-0.0185888
-0.013394
-0.0132427
-0.0155524
-0.0146223
-0.0163165
-0.0127409
-0.016317
-0.0193006
-0.0176488
-0.0226046
-0.0226039
-0.0193013
-0.0171288
-0.0123924
-0.00914817
-0.00869048
-0.00805944
-0.00811223
-0.00799816
-0.00705309
-0.00799874
-0.0103507
-0.0093828
-0.0118924
-0.0118912
-0.0103516
-0.00870377
-0.0113529
-0.0073608
-0.00736031
-0.00644605
-0.00694989
-0.011353
-0.00831291
-0.00589498
-0.00747291
-0.00989933
-0.00909988
-0.0114332
-0.0121046
-0.0101401
-0.00811228
-0.00869053
-0.00848552
-0.00924185
-0.00760006
-0.01049
-0.0091545
-0.0117885
-0.0105668
-0.0138986
-0.0126399
-0.0162404
-0.0146206
-0.0192677
-0.0194585
-0.0171695
-0.0220438
-0.0227822
-0.0172135
-0.019029
-0.0158303
-0.0164892
-0.0124048
-0.0137682
-0.0123492
-0.0163815
-0.014018
-0.0139039
-0.0117783
-0.0105432
-0.0119115
-0.00900846
-0.0101625
-0.0101045
-0.00922344
-0.0118412
-0.0100679
-0.0102031
-0.00785762
-0.00808965
-0.00780968
-0.00570158
-0.0077659
-0.00805938
-0.00793079
-0.00534638
-0.00635573
-0.00655454
-0.0104934
-0.00837223
-0.00837672
-0.00851351
-0.00781909
-0.00770171
-0.00886195
-0.0116506
-0.0097385
-0.0132355
-0.0159165
-0.0218256
-0.0182915
-0.0249826
-0.0294054
-0.0294053
-0.0218253
-0.0173487
-0.0385749
-0.0385751
-0.033322
-0.0432219
-0.0490601
-0.0490587
-0.0594337
-0.0594346
-0.0543043
-0.0654193
-0.0755375
-0.0620194
-0.0673348
-0.05193
-0.0652204
-0.0577409
-0.0618015
-0.0526083
-0.07865
-0.0794632
-0.0515584
-0.0409117
-0.031633
-0.0237535
-0.0173996
-0.0125767
-0.0104567
-0.0146907
-0.0125503
-0.0162708
-0.0146572
-0.0193007
-0.0175706
-0.0225582
-0.0201862
-0.026446
-0.0267532
-0.0235438
-0.0301812
-0.0310156
-0.023585
-0.0260897
-0.0267183
-0.0201891
-0.0264906
-0.0241552
-0.0308112
-0.030811
-0.0264908
-0.0201896
-0.0267172
-0.021499
-0.0187128
-0.0135232
-0.0100343
-0.00817005
-0.00870445
-0.008096
-0.00690947
-0.00516028
-0.00844166
-0.00921805
-0.00703101
-0.00849858
-0.00772569
-0.00708526
-0.0106025
-0.00614212
-0.00649672
-0.0101674
-0.0058963
-0.00650789
-0.00819604
-0.00835642
-0.00838792
-0.00835697
-0.00611911
-0.00636083
-0.0105335
-0.00655915
-0.00629835
-0.00549039
-0.00830521
-0.00573711
-0.00999198
-0.00647446
-0.00589807
-0.00823168
-0.00973567
-0.00990909
-0.0114842
-0.012514
-0.0111839
-0.0139999
-0.0132618
-0.0135232
-0.0159569
-0.0172349
-0.0203798
-0.0174352
-0.0226079
-0.0202297
-0.0265708
-0.0265277
-0.0240794
-0.0307862
-0.027316
-0.0354701
-0.0359749
-0.0309595
-0.0291593
-0.0291635
-0.0308507
-0.0273597
-0.0307576
-0.0234944
-0.0172031
-0.0124315
-0.00912998
-0.0117265
-0.016228
-0.0223531
-0.0213223
-0.0287633
-0.0301662
-0.0301662
-0.0395915
-0.0360006
-0.0463531
-0.0413561
-0.0502722
-0.0457586
-0.0585371
-0.0519305
-0.0517136
-0.0407226
-0.0310059
-0.0229601
-0.0166594
-0.0120303
-0.0105566
-0.0139634
-0.0139622
-0.0139614
-0.0139646
-0.0105564
-0.0120304
-0.0166594
-0.0146221
-0.0194196
-0.0155529
-0.0112911
-0.00984266
-0.013394
-0.0185893
-0.0214993
-0.0224475
-0.0162007
-0.0154924
-0.0155154
-0.0193775
-0.01848
-0.0187989
-0.0220665
-0.0238847
-0.0279918
-0.0238812
-0.0325287
-0.037581
-0.0318926
-0.0431634
-0.0490518
-0.041357
-0.0529123
-0.0457593
-0.0585369
-0.0621719
-0.0428378
-0.0555324
-0.034303
-0.0504599
-0.0394231
-0.0298907
-0.0257805
-0.0253692
-0.0339333
-0.0344978
-0.0441165
-0.0449372
-0.0560914
-0.0572774
-0.0735905
-0.0511437
-0.067357
-0.0933557
-0.0775556
-0.079338
-0.108286
-0.0791934
-0.0748717
-0.0965846
-0.0622425
-0.060963
-0.0640347
-0.0508961
-0.0404823
-0.0312962
-0.0333987
-0.0431632
-0.0502724
-0.0480378
-0.0377548
-0.0395916
-0.0407229
-0.0311576
-0.0233875
-0.0310061
-0.0229603
-0.0273249
-0.035925
-0.0355536
-0.0322626
-0.0409476
-0.0409469
-0.0355535
-0.0273247
-0.0359237
-0.0291857
-0.0304896
-0.0253385
-0.0224472
-0.0184401
-0.0403627
-0.0339874
-0.0386356
-0.0469687
-0.046355
-0.0359829
-0.0403127
-0.0506995
-0.0784939
-0.0758964
-0.0558877
-0.0789865
-0.0593019
-0.0575564
-0.082588
-0.057892
-0.0826057
-0.0805244
-0.0862183
-0.0857787
-0.0796183
-0.0919812
-0.0781299
-0.0779016
-0.0818994
-0.0818446
-0.0613921
-0.0610905
-0.0565942
-0.0497173
-0.0457563
-0.0610893
-0.0740285
-0.0763982
-0.0620482
-0.0738249
-0.0661961
-0.0635544
-0.0576346
-0.0445908
-0.0342837
-0.0256321
-0.0291859
-0.0254915
-0.0341285
-0.0386358
-0.0359831
-0.0403633
-0.0304901
-0.0252811
-0.018396
-0.0131981
-0.00970448
-0.00975269
-0.0132718
-0.0185072
-0.0214884
-0.0225773
-0.0254317
-0.034047
-0.0385612
-0.0463528
-0.0495737
-0.0496856
-0.0386025
-0.0338775
-0.0441711
-0.0442943
-0.0562789
-0.0737032
-0.061111
-0.0563381
-0.0739894
-0.0646127
-0.051933
-0.0497179
-0.0444647
-0.0443986
-0.0568567
-0.0339899
-0.0214669
-0.0227176
-0.011168
-0.0116572
-0.00872943
-0.00971345
-0.0132433
-0.0184409
-0.0253426
-0.0517138
-0.0443936
-0.026476
-0.019841
-0.0145048
-0.016285
-0.011291
-0.0137681
-0.0123488
-0.00668922
-0.00718574
-0.00774722
-0.00767272
-0.00737552
-0.0072467
-0.00758693
-0.00779396
-0.0067268
-0.00776165
-0.0057543
-0.00731099
-0.00797576
-0.00644585
-0.00695004
-0.00718339
-0.00843803
-0.0291628
-0.0356123
-0.0318926
-0.0522718
-0.0529544
-0.0789867
-0.0770272
-0.00549631
-0.00555818
-0.0197463
-0.0230528
-0.0169024
-0.0398992
-0.0238805
-0.0321674
-0.0125502
-0.0175696
-0.00549039
-0.00570149
-0.00534593
-0.0798169
-0.0909218
-0.0769738
-0.0776675
-0.0769761
-0.0595627
-0.0620496
0.00819691
0.00809754
0.0098427
0.00909982
0.00989965
0.0101394
0.0121054
0.0114325
0.00900834
0.0101628
0.00793102
0.00534589
0.00649681
0.00614229
0.00635554
0.00655436
0.00629794
0.00655887
0.00636054
0.006119
0.00647418
0.00589792
0.00675761
0.00573692
0.00870812
0.0065235
0.00567816
0.00697943
0.00690747
0.00555813
0.00690734
0.00567807
0.00652334
0.00675751
0.00870809
0.0057369
0.0083052
0.00999184
0.00589784
0.00647429
0.00611898
0.00636056
0.00655889
0.0105333
0.0078095
0.00776564
0.0079306
0.0104929
0.00655432
0.0063555
0.00614211
0.00649655
0.00589616
0.0101672
0.00650787
0.00694976
0.011353
0.00799887
0.0070532
0.00736097
0.0113529
0.00695026
0.00650797
0.0101679
0.00747294
0.00589521
0.00831278
0.00811225
0.0103517
0.0103508
0.00938294
0.0118913
0.0105563
0.0139637
0.0124049
0.0137683
0.0140181
0.012349
0.0163811
0.01624
0.0139042
0.0105427
0.0117781
0.0119108
0.00864044
0.0117572
0.0162712
0.0222326
0.0296426
0.0384105
0.0485634
0.0818425
0.0804776
0.0649751
0.0786066
0.0755762
0.0778683
0.109221
0.0774616
0.0791929
0.108289
0.0793381
0.0775538
0.0919809
0.0799538
0.0796159
0.054657
0.0825858
0.0614164
0.0994871
0.0936125
0.0781808
0.103474
0.0781774
0.0936119
0.0994869
0.079955
0.0796147
0.0775541
0.0919813
0.0793378
0.108285
0.0791916
0.0774639
0.068289
0.0681496
0.0649745
0.0755764
0.0778701
0.0786073
0.107871
0.0783155
0.090923
0.0782603
0.107868
0.0785779
0.0773554
0.0756506
0.068075
0.0680755
0.0773549
0.0785792
0.107869
0.078262
0.0909216
0.079816
0.078313
0.10787
0.0621067
0.0665491
0.0966591
0.0595601
0.0666103
0.0620494
0.0645375
0.0661967
0.0635562
0.0661965
0.0523489
0.0613917
0.0613919
0.0964865
0.0645368
0.0620469
0.0666109
0.0595622
0.0665507
0.0621076
0.0644414
0.0662801
0.0634937
0.0661302
0.0643889
0.0613012
0.0654682
0.0589661
0.0674999
0.0933504
0.0673551
0.0673332
0.062171
0.0555327
0.0490507
0.0431635
0.0375805
0.032529
0.0279913
0.0238842
0.0203796
0.0172347
0.0146907
0.0125139
0.0104896
0.0102031
0.0100677
0.0101044
0.0101622
0.0098993
0.00909993
0.01014
0.00831297
0.00589505
0.00747291
0.00534622
0.00901973
0.0086404
0.0117573
0.0162714
0.0222328
0.0296428
0.0384103
0.0485632
0.081843
0.0804786
0.0511771
0.0536581
0.0796695
0.0566148
0.0566145
0.0536582
0.0511765
0.0796692
0.0536414
0.0681493
0.0682911
0.0748703
0.0661666
0.081065
0.0521152
0.0529541
0.0818066
0.0786483
0.0794615
0.0770068
0.0794613
0.0810636
0.0546568
0.0578898
0.0825859
0.0623396
0.0623399
0.0578899
0.0828507
0.0554533
0.055887
0.0558875
0.0789857
0.0554535
0.0805235
0.0814954
0.0805884
0.0781305
0.085781
0.0807143
0.0865786
0.104399
0.0707604
0.0518793
0.0812277
0.0653224
0.058268
0.0702895
0.0660027
0.0792693
0.0680468
0.0680465
0.0429475
0.0647083
0.0388014
0.0578026
0.0513056
0.0303695
0.0449911
0.0392489
0.02307
0.0340114
0.029201
0.0170643
0.0250542
0.0212484
0.0123776
0.0181523
0.0153504
0.00896546
0.013161
0.0115354
0.0069262
0.00954125
0.00604065
0.00724997
0.00724999
0.0069793
0.0066659
0.00638995
0.00599084
0.00826649
0.00581435
0.00581442
0.00585661
0.00834993
0.0058917
0.00589172
0.00573558
0.00819583
0.00634525
0.0063455
0.00624658
0.00888082
0.00763899
0.00764232
0.00844134
0.0092178
0.00703102
0.00849876
0.00708547
0.0106023
0.00711185
0.00651792
0.0078971
0.00575434
0.00776163
0.00772546
0.00758685
0.00779404
0.00697912
0.0105866
0.00698437
0.0067815
0.00806288
0.0054962
0.00681438
0.00753181
0.00895979
0.00898125
0.0092417
0.0125766
0.0173993
0.0237535
0.0316327
0.0409114
0.0515578
0.0519301
0.0652198
0.0640336
0.0646313
0.0648384
0.059883
0.0528053
0.0470667
0.0410887
0.0359749
0.0309586
0.0267532
0.0227168
0.0194584
0.0163813
0.0140179
0.0119112
0.00900838
0.0114329
0.0121046
0.0118922
0.0139615
0.0127411
0.0139622
0.016316
0.0164893
0.0158297
0.0190291
0.019419
0.017213
0.0220428
0.0171687
0.0194584
0.0146207
0.0192675
0.0193003
0.0175698
0.0225764
0.022607
0.0193773
0.0146564
0.0162845
0.0126397
0.0138987
0.0118412
0.00922317
0.0101047
0.00805949
0.00776573
0.0104931
0.00753204
0.00711201
0.0106024
0.00708505
0.00849782
0.00702982
0.00921875
0.00843776
0.00718295
0.00624686
0.00646481
0.00731088
0.00575481
0.00532102
0.00789716
0.00776167
0.00651774
0.00681451
0.0054963
0.00899393
0.0057355
0.00889533
0.00914814
0.0123923
0.0171287
0.0233875
0.0311577
0.0403125
0.0506992
0.078492
0.0816846
0.0798986
0.0790485
0.0770288
0.0868003
0.0779037
0.109223
0.0862185
0.0661659
0.0521149
0.0529534
0.0789855
0.059301
0.0577404
0.0618001
0.0611091
0.0636981
0.0628339
0.0501694
0.0635293
0.0650324
0.0515649
0.0596924
0.0575317
0.0634539
0.0515218
0.056336
0.0739867
0.0736983
0.0735876
0.0755335
0.0654162
0.0543037
0.0572799
0.0620182
0.0560911
0.0441144
0.0449348
0.0432231
0.0333215
0.0344964
0.0394239
0.050458
0.0495727
0.0585372
0.0589387
0.0524236
0.0528021
0.0457404
0.0583041
0.0522719
0.0508954
0.0786483
0.081805
0.0536418
0.0815577
0.0802391
0.0805235
0.0826051
0.0614153
0.0689049
0.0689926
0.0697663
0.0703849
0.0628673
0.0534055
0.0426408
0.032966
0.0247829
0.0182244
0.0133126
0.00998539
0.00798526
0.0074338
0.00770161
0.00770158
0.00781899
0.00973869
0.0132353
0.0182911
0.024982
0.0257795
0.0298911
0.0339332
0.025369
0.0184798
0.0187982
0.0220664
0.0214878
0.0265707
0.0265276
0.0225769
0.0225577
0.0201863
0.0264458
0.0307855
0.0273159
0.0354699
0.0409499
0.0359651
0.0461878
0.0417111
0.0465239
0.0408079
0.0360017
0.0463531
0.0529103
0.045759
0.0502719
0.0404816
0.0312959
0.0321676
0.0356346
0.0307574
0.0273604
0.035613
0.0410253
0.0318929
0.0385609
0.0442934
0.0562769
0.0609606
0.0622401
0.0965792
0.0748688
0.0511413
0.06111
0.0964796
0.0646118
0.0763939
0.0740286
0.0566055
0.0568632
0.0519313
0.0496849
0.0441704
0.033877
0.0340464
0.0254315
0.0185069
0.0132717
0.0132617
0.0135223
0.0159569
0.015515
0.0193773
0.0193002
0.0162845
0.01624
0.0146206
0.0192673
0.0175696
0.0172028
0.0234943
0.0240788
0.0223529
0.0202297
0.0226073
0.0174352
0.021322
0.0292013
0.019841
0.0340117
0.0230706
0.03925
0.0264757
0.0449911
0.0303699
0.0513063
0.0343029
0.0578017
0.0388017
0.064709
0.0428378
0.0730367
0.0497062
0.0757319
0.0519976
0.0487395
0.0575553
0.0575552
0.0757315
0.0497061
0.0730369
0.0487391
0.0792694
0.0518785
0.0660024
0.0635108
0.0702904
0.0582686
0.0653227
0.0675008
0.0812279
0.0689928
0.0689061
0.0826051
0.080716
0.0805901
0.085781
0.0781273
0.0862187
0.0802379
0.0818999
0.0829937
0.0758951
0.0542992
0.0544074
0.051844
0.0429474
0.0630424
0.0557619
0.0495805
0.0435014
0.0435009
0.0263321
0.0379767
0.0234344
0.0328897
0.019746
0.0283088
0.0173486
0.0242363
0.0144649
0.0206455
0.0125865
0.0176009
0.0104824
0.0149427
0.00911165
0.0129536
0.00773237
0.0109712
0.00692349
0.0103389
0.00760479
0.0103389
0.00604052
0.00954131
0.00692614
0.0115353
0.00759992
0.0131608
0.00896555
0.0153503
0.0104567
0.0181524
0.0123776
0.0212483
0.0145044
0.0250542
0.0170644
0.0173488
0.024236
0.0169024
0.0206453
0.0176012
0.0149425
0.0129535
0.00915125
0.0109711
0.00692361
0.00821734
0.011224
0.0091118
0.0116506
0.0159167
0.0218256
0.0294055
0.0385753
0.0490594
0.059433
0.0594324
0.069767
0.065417
0.0543029
0.0490589
0.0630426
0.0392073
0.0557617
0.0341468
0.049581
0.0307917
0.0377544
0.0410632
0.0341466
0.0398991
0.0317246
0.0263317
0.0379765
0.0328903
0.0283086
0.0197457
0.0238291
0.0230526
0.0174774
0.0144649
0.0126725
0.0104823
0.0122827
0.00938378
0.00773198
0.00821383
0.0103276
0.00638993
0.006666
0.00866013
0.00707106
0.00707074
0.00866007
0.00933423
0.00610401
0.00729571
0.00782895
0.00791802
0.00536238
0.00656866
0.00751976
0.0070874
0.0106483
0.00717527
0.00863827
0.00764614
0.00760765
0.00672133
0.00722966
0.00728168
0.00757302
0.00973625
0.00728187
0.00933435
0.00729596
0.0061041
0.00557604
0.007918
0.00656867
0.00536243
0.00548068
0.00806296
0.00678159
0.00698444
0.0105869
0.0069792
0.00779411
0.00730626
0.00722957
0.00736995
0.00784722
0.00557594
0.00929463
0.00774398
0.00778135
0.00730602
0.0067269
0.00750375
0.00774402
0.00784727
0.00599081
0.00929471
0.0082174
0.00982662
0.0133123
0.0184001
0.025107
0.033424
0.0432117
0.0480377
0.0392078
0.0480377
0.0515581
0.042838
0.0673326
0.0519297
0.0585372
0.045759
0.0524233
0.0417114
0.0461875
0.0359648
0.0409499
0.0410888
0.0314883
0.0349798
0.0359245
0.0315357
0.040333
0.0455622
0.0469694
0.0409754
0.0523508
0.0409215
0.0470669
0.0528063
0.0528028
0.058304
0.0457411
0.0598821
0.0515227
0.0575317
0.0596935
0.0515652
0.0634541
0.0648394
0.0646318
0.0522723
0.0589398
0.0640337
0.0652201
0.0622403
0.0577405
0.0618004
0.0526062
0.0611094
0.0576904
0.0636967
0.0500687
0.0628328
0.0635301
0.0501688
0.0740286
0.0738239
0.0610901
0.0576352
0.0643523
0.0523962
0.0585939
0.0585938
0.0457551
0.0529491
0.040975
0.0469689
0.0455627
0.0523503
0.0409225
0.0403325
0.0315357
0.0359245
0.0349801
0.0314889
0.030181
0.0235858
0.0267183
0.0260892
0.0235434
0.0252808
0.0183956
0.0131979
0.00970427
0.00975284
0.00973563
0.00990913
0.0114844
0.0111838
0.014
0.0138984
0.0118413
0.0117779
0.0105428
0.0139042
0.0126395
0.0124313
0.00912986
0.00922312
0.00848535
0.00808944
0.00785734
0.00549031
0.00835683
0.00823149
0.00851344
0.00837664
0.00838787
0.00629813
0.00570136
0.0083722
0.0111675
0.0154921
0.0214666
0.0291591
0.0386018
0.0403636
0.0443983
0.0444647
0.034127
0.0339865
0.0304898
0.0291851
0.0386352
0.0411733
0.0409467
0.0322628
0.0355532
0.0355534
0.027324
0.0308112
0.0241548
0.0264902
0.02649
0.0201885
0.0227816
0.0172132
0.0194195
0.0190292
0.0220435
0.0171688
0.0224472
0.0253406
0.025491
0.0185888
0.0184365
0.0162005
0.0155524
0.016489
0.0124048
0.0139642
0.013768
0.0158302
0.0123489
0.0116569
0.0132431
0.0133941
0.00984247
0.00971255
0.00872949
0.00835632
0.00819611
0.00809614
0.00690934
0.00516016
0.00608981
0.00581152
0.00612037
0.00515586
0.00691392
0.00644573
0.00796438
0.00817009
0.0100344
0.0112912
0.010556
0.0120302
0.0117264
0.0105668
0.0117882
0.00915425
0.0162279
0.0146568
0.0162705
0.01255
0.015494
0.0125865
0.015494
0.0213219
0.028763
0.0316325
0.0409116
0.0343031
0.0555321
0.0413569
0.0463531
0.0360014
0.0408071
0.0321668
0.0354691
0.0273158
0.030785
0.0309584
0.0235431
0.0260893
0.0267175
0.0235849
0.0301808
0.0310152
0.0273238
0.030811
0.0291855
0.0342834
0.0445905
0.0565942
0.0497164
0.0497177
0.0610889
0.0576343
0.0650313
0.0643532
0.0610169
0.0593011
0.0502722
0.0508958
0.0404818
0.043163
0.0395915
0.0377545
0.0307916
0.0287631
0.0234352
0.0301661
0.0333986
0.0250866
0.0183802
0.0132905
0.00980627
0.00896876
0.00906578
0.00898135
0.00924184
0.0125767
0.0173994
0.0237532
0.0198406
0.0325277
0.0238803
0.0265702
0.0202296
0.0265274
0.0240785
0.0264453
0.0201862
0.0225575
0.0227166
0.0267526
0.0214659
0.0214872
0.0220656
0.0249821
0.0333214
0.0432226
0.0385746
0.0294049
0.0218253
0.0159165
0.0182913
0.0132352
0.0116508
0.00886191
0.00973842
0.0078189
0.00823212
0.00851327
0.0104899
0.00915451
0.0102031
0.0080897
0.00780971
0.00570138
0.00895993
0.00912992
0.0124314
0.0172028
0.0234941
0.0312958
0.0395914
0.030166
0.0273596
0.0308492
0.0307565
0.0356338
0.0356125
0.0375803
0.0318919
0.0431625
0.0264757
0.0490514
0.0394222
0.0504577
0.0621708
0.0620202
0.0673559
0.0511418
0.0654707
0.0589647
0.0933518
0.0755286
0.073585
0.0613021
0.0643914
0.0965816
0.0661306
0.0634945
0.0662813
0.096479
0.0644419
0.0739853
0.0736991
0.0609628
0.0560893
0.0572795
0.0441141
0.0449362
0.0339314
0.0344953
0.0298897
0.0291621
0.0385604
0.0410245
0.0465242
0.0495725
0.0529109
0.0562763
0.0442926
0.0340456
0.0254309
0.0253682
0.0257794
0.0184793
0.0174352
0.0203801
0.0172345
0.0125503
0.014
0.0105667
0.0117886
0.0125139
0.00760006
0.014691
0.0104568
0.0114843
0.0159566
0.0187986
0.0155148
0.0162707
0.0132618
0.0135229
0.00973585
0.00990847
0.00835716
0.00549029
0.00830512
0.00999167
0.00764605
0.00717529
0.0106483
0.00708735
0.00751997
0.0105335
0.0078576
0.00837668
0.0100681
0.0111836
0.0111674
0.0154916
0.0185065
0.0132717
0.0097529
0.00838816
0.008372
0.00970442
0.0131977
0.0183952
0.0252804
0.0338767
0.0441705
0.0563358
0.0611113
0.0646122
0.0566046
0.0444634
0.0386355
0.0463546
0.0463547
0.0418413
0.0527177
0.0529484
0.0457556
0.0517135
0.0517132
0.061017
0.0576904
0.0407225
0.0359818
0.0407225
0.0359815
0.0411731
0.0409468
0.0310057
0.031006
0.0229601
0.02296
0.0223528
0.016228
0.0117264
0.0112241
0.00848547
0.00898823
0.00585655
0.00869054
0.0120303
0.0166593
0.0166593
0.0146218
0.0193006
0.0176486
0.019301
0.0146219
0.0155525
0.0187124
0.0214986
0.0226042
0.0226038
0.022782
0.0201885
0.0214989
0.0256316
0.0254908
0.0341281
0.0304895
0.0403623
0.0386011
0.049685
0.0519316
0.0568621
0.0443976
0.0291583
0.0359742
0.0339894
0.0253421
0.0224464
0.0185885
0.0133939
0.0135232
0.011291
0.0116568
0.0162004
0.0184389
0.0132428
0.00872968
0.00971271
0.00870391
0.00799814
0.00870444
0.00811227
0.00869036
0.00805908
0.00899387
0.00532096
0.0077472
0.00718564
0.00668888
0.00732487
0.00774726
0.00767246
0.00718571
0.00668826
0.00758668
0.00724585
0.00737526
0.00724648
0.00767261
0.00646486
0.00718069
0.00644605
0.00736016
0.00849957
0.00797589
0.00820394
0.00731077
0.00961207
0.00772601
0.00835662
0.016317
0.00901994
0.0527181
0.0763935
0.00778152
0.00760751
0.00782907
0.00863835
0.00672129
0.00672709
0.0145046
0.0238841
0.0279909
0.0519975
0.00886186
0.0964873
0.0756489
0.0647079
0.0780183
0.0869628
0.0790475
0.081558
0.0869545
0.0776684
0.086955
0.0769801
0.0869624
0.078019
0.0647084
0.0798136
0.0966581
0.109141
0.0769774
0.0868003
0.0779047
0.0770315
0.0310154
0.029163
0.03085
0.0238809
0.0089881
0.00548062
0.0307384
0.0504378
0.0575804
0.0413558
0.0526054
0.0500696
0.0058963
)
;

boundaryField
{
    face
    {
        type            calculated;
        value           nonuniform List<scalar> 
154
(
-0.08
-0.08
-0.08
-0.08
-0.08
-0.08
-0.08
-0.08
-0.08
-0.08
-0.08
-0.08
-0.08
-0.08
-0.08
-0.08
-0.08
-0.08
-0.08
-0.08
-0.08
-0.08
-0.08
-0.08
-0.08
-0.08
-0.08
-0.08
-0.08
-0.08
-0.08
-0.08
-0.08
-0.08
-0.08
-0.08
-0.08
-0.08
-0.08
-0.08
-0.08
-0.08
-0.08
-0.08
-0.08
-0.08
-0.08
-0.08
-0.08
-0.08
-0.08
-0.08
-0.08
-0.08
-0.08
-0.08
-0.08
-0.08
-0.08
-0.08
-0.08
-0.08
-0.08
-0.08
-0.08
-0.08
-0.08
-0.08
-0.08
-0.08
-0.08
-0.08
-0.08
-0.08
-0.08
-0.08
-0.08
0.08
0.08
0.08
0.08
0.08
0.08
0.08
0.08
0.08
0.08
0.08
0.08
0.08
0.08
0.08
0.08
0.08
0.08
0.08
0.08
0.08
0.08
0.08
0.08
0.08
0.08
0.08
0.08
0.08
0.08
0.08
0.08
0.08
0.08
0.08
0.08
0.08
0.08
0.08
0.08
0.08
0.08
0.08
0.08
0.08
0.08
0.08
0.08
0.08
0.08
0.08