/*--------------------------------*- C++ -*----------------------------------*\
| =========                 |                                                 |
| \\      /  F ield         | OpenFOAM: The Open Source CFD Toolbox           |
|  \\    /   O peration     | Version:  2306                                  |
|   \\  /    A nd           | Website:  www.openfoam.com                      |
|    \\/     M anipulation  |                                                 |
\*---------------------------------------------------------------------------*/
FoamFile
{
    version     2.0;
    format      ascii;
    arch        "LSB;label=32;scalar=64";
    class       volScalarField;
    location    "2.6";
    object      gradTy;
}
// * * * * * * * * * * * * * * * * * * * * * * * * * * * * * * * * * * * * * //

dimensions      [0 -1 0 1 0 0 0];

internalField   nonuniform List<scalar> 
2658
(
0.00848424
0.00489183
0.00152386
-0.000214631
-0.0182504
0.0224618
-0.0193836
0.0163097
-0.000328557
-0.015898
0.00495609
-0.0353444
0.021295
0.0216723
0.0175052
0.0179976
0.0197645
0.0177169
0.0179205
0.0214056
0.0206134
0.0179204
0.00590041
-0.00413424
0.0067065
0.0197518
-0.00434104
0.00116351
0.0161101
-1.84588e-06
-0.0161115
0.00434144
-0.0197518
-0.0058981
-0.00670518
0.00413556
-0.00132451
0.00167351
-0.0179261
-0.0206157
-0.0214077
-0.0179215
-0.0177149
0.00892556
-0.00149674
-0.000781849
-0.00495645
0.00928987
-0.0180008
-0.0175047
-0.0216684
-0.0212941
-0.0188352
0.00392501
-0.00701796
-0.00667927
0.000452249
-0.0118539
-1.82096e-06
-0.000213356
-0.000452127
0.00667816
0.00701897
-0.00392555
0.004782
-0.010339
-0.014768
-0.000643074
-0.0248732
0.0248727
-2.42917e-07
0.0214105
-0.000214999
0.0179396
-7.60394e-05
-0.013578
-0.0134711
0.000296199
0.0132791
0.00873397
-0.00900934
-0.000546943
0.0114225
0.0171437
-0.000391943
-0.000234353
-7.48113e-06
9.26146e-05
0.000127598
0.000140337
0.000123198
-0.000482704
0.00025318
0.00124956
-0.000562111
-0.00128419
-0.000242913
-0.00139748
-0.000261037
-0.000538069
-0.00153301
-0.000416161
-0.00130705
-0.000719269
-0.000595576
0.00136394
-0.000490152
-2.17743e-06
0.000175578
-0.00144118
0.000475495
-0.000653801
-3.14768e-08
0.000653779
-0.000475577
0.00144107
0.000595594
-0.0013639
0.00130703
0.000719302
0.00041615
0.00153302
0.000538046
0.000261008
-0.00107264
-0.00103928
-0.0012496
0.00128413
0.000242843
0.000562163
0.00150249
0.00039112
0.000720314
0.000649382
0.00134154
-0.000597964
3.83103e-05
6.07268e-05
-0.00136053
0.00136068
-3.85259e-05
0.000598043
-0.000362382
-0.000378384
-3.43007e-06
0.000377106
6.5736e-07
7.50826e-07
-0.000745158
0.000734545
1.6054e-06
5.84175e-05
0.000390451
-0.000432763
0.00175942
0.000410879
0.00164678
0.00194577
0.00206303
0.00163699
0.00164807
0.00188733
0.00164643
0.0016671
0.00211077
0.00196547
0.00172218
0.000558327
-0.000129488
0.000317242
-0.00228796
0.00295253
-0.00316801
0.00394569
-0.00450776
0.0053609
-0.00632284
0.00718566
-0.00864729
0.00937795
-0.0115241
0.0118706
-0.0150597
0.014593
0.0142505
0.0119394
0.0113343
0.015899
0.0182498
0.000213971
-0.0224633
0.0147678
0.010338
-0.00478135
0.0353448
-0.00429033
0.00039059
0.000233653
6.77944e-06
-9.32915e-05
-0.00012804
-0.000140588
-0.000123338
0.000482621
-0.000253047
1.87007e-05
-0.00056622
0.000197181
-0.000730689
0.000730721
0.000566255
-1.87805e-05
-0.000197192
-0.000220128
0.00103937
0.00107262
-0.00129843
0.00122095
0.000294533
-3.85347e-05
-0.000196681
0.000190712
-0.00018083
-0.000193573
-6.63112e-08
0.000193548
-0.000294712
0.000490205
-0.000928492
2.20306e-06
-0.00103133
0.00103125
0.000928376
-1.37248e-07
-0.000646389
-0.000707743
0.000707647
-0.000187624
0.000646209
-9.53298e-05
-6.57879e-08
-0.000520067
-0.000229711
0.000679477
-0.000175519
3.3027e-08
1.22422e-08
-8.71607e-08
-0.000986188
0.00070882
0.00197249
-0.000475957
0.00156662
-0.00209307
0.00244045
-0.00260878
0.00260846
0.000334395
0.00299096
0.000213451
-0.00365315
0.0041699
0.000114151
-0.0050011
0.00583022
2.23522e-05
-0.00681877
0.00799414
-0.000114299
-0.00909767
0.0106748
-0.000405145
-0.0117883
0.0138791
-0.00111288
-0.0147944
0.0175394
-0.00302203
-0.019045
-0.00878944
-0.0195567
0.0195556
-0.00116295
-0.00532224
0.0101507
0.0090566
-5.0066e-07
-0.00643566
0.0064358
0.00671409
-3.37209e-07
-0.00809229
0.00809216
0.00326666
-1.05148e-06
-0.0210485
0.0210461
-0.0130792
-1.58604e-06
0.0130759
-0.0101961
0.00648162
0.0149284
0.0103652
0.0136621
-0.0201888
0.014387
0.00191598
0.0012189
0.000205189
-0.00326723
-0.00118405
-0.00335031
-0.0115685
0.00623351
0.0178828
0.00758379
0.00855093
-0.00437296
-4.50699e-07
0.00437336
0.0033507
-0.0143858
0.0201889
-0.0149281
-0.00647925
0.0101951
-0.00191762
-0.00122032
-0.00854899
-0.00758397
-0.0178811
-0.00623359
0.0115682
-0.0119018
-0.00426174
-0.0165625
-0.00375044
0.0109063
0.00259814
-0.00254828
0.0118577
-0.00235314
-0.0028374
0.000112994
-8.76909e-05
-0.00023984
-0.000274509
-0.000259819
-0.000232725
-0.000195776
-0.000233471
-0.00216426
-0.0018445
-0.00166355
-0.00252681
0.00333265
-0.00359114
0.00450779
-0.00511654
0.00613142
-0.00719759
0.00821013
-0.00990276
0.0106926
-0.0132789
0.0134721
-0.0171439
0.000328639
-0.0163096
0.0193842
-0.0214116
0.0200192
-7.43155e-07
-0.02002
0.0172674
-0.0155133
0.012579
-0.010471
0.0138418
7.67329e-05
0.00942561
0.00038455
-0.0106915
-0.000422515
-0.00707355
-0.00809461
0.000379021
0.0074494
0.0081402
-0.0090502
-0.000471591
0.0099558
0.00022579
-0.0101179
0.0126958
-0.000538657
-0.0113341
-4.81094e-05
0.000781758
-0.00929036
0.0119007
-0.0118581
0.00254761
0.000881055
-9.3051e-05
-3.91468e-07
0.000219834
1.17713e-05
-0.000150842
-0.000203403
-0.000204894
-0.000190447
-0.000160885
0.000180741
-0.00019075
0.00019674
0.000187521
3.86763e-05
-0.00122096
0.00129839
-0.000885193
0.000618833
0.000351495
0.000287205
0.000773727
0.000546092
-0.000150319
-0.00207714
0.00343958
6.61361e-06
-0.00388073
0.00314552
-0.00266266
-0.000227065
0.000132866
0.00105825
0.00107605
0.00106757
0.000666834
0.000747035
3.99772e-05
0.000288206
0.000328401
0.000138348
-0.000198339
2.63845e-05
-8.05295e-05
-0.000170426
-0.000155784
0.000112386
0.000154932
0.000172059
0.00287941
0.00253242
-0.0026513
-0.00231692
0.000142273
0.00228835
-0.00025537
0.000187005
-0.000172977
-0.000470447
-0.000478062
-0.000803048
-0.000356221
-0.000278336
-0.000417569
-0.00066131
-8.52712e-06
6.62967e-05
0.000143661
0.00514553
0.00468051
-0.00540755
-0.0046805
0.000275899
0.00408494
-0.00331129
0.00021008
0.00304018
-0.000263905
0.00344873
-0.00382352
0.000221763
0.00380983
-0.00302093
0.000153357
2.6911e-05
-9.23369e-05
-0.0029904
3.72682e-05
0.0027441
-0.000386883
-0.00234924
-0.000490665
-0.000198683
-3.30264e-05
6.74202e-05
0.000173079
0.000364622
0.000353049
-0.000906924
0.000343467
0.000661526
0.000415829
6.23536e-05
0.000209147
0.000175722
0.00016434
-0.000201097
-0.000487058
-0.000826188
-0.000819484
-0.00132942
-0.00126324
-0.00205772
-0.00127914
-0.000617922
-0.00122632
-0.00298276
-0.000475109
-0.000158042
2.20028e-05
0.00905052
0.00809588
-0.0099552
-0.00873245
0.00042245
0.00707411
-0.00646982
0.000343197
0.00543433
-0.000359261
0.00624382
-0.00744854
0.00037358
0.00689487
-0.00593898
0.000294341
5.08205e-05
3.91897e-05
-0.000123304
-0.00416933
2.06681e-05
0.00365333
-0.000213386
-6.15357e-05
-0.00364472
0.00446857
-0.00509358
0.00509324
0.000106073
-0.00614575
5.98174e-05
0.00703398
3.81886e-05
-0.00831232
7.21691e-05
0.00947989
-9.88934e-05
-0.0109293
5.96433e-05
0.012409
-0.000483475
-0.0138643
-6.96218e-05
0.0157513
-0.00179164
-0.0164925
-0.00135739
0.0185103
-8.88042e-07
-0.018511
0.00878776
0.0190465
0.00302105
-0.0175385
-0.000195408
0.0147941
0.00111197
-0.0138781
-6.29593e-05
0.0117901
0.000404544
-0.0106734
-2.98398e-05
0.00909908
0.000113368
-0.00799348
-8.09372e-06
0.00681948
-2.27185e-05
-0.00582955
7.76682e-06
0.00500157
-0.000114132
-5.15749e-05
-0.000193427
-0.00014162
-5.09048e-05
0.000530341
-2.13037e-07
-1.63456e-08
-4.44791e-07
-1.23318e-08
2.28449e-07
3.97579e-07
9.70274e-07
3.39073e-06
1.08948e-06
-5.9502e-07
-1.61044e-06
0.00542603
-0.00542712
-0.00757157
-0.00723533
-0.0021774
-0.00387894
-0.0121395
0.0363612
-0.00342102
0.000185811
-0.000149629
-0.000213924
0.00135777
0.0164933
0.00179091
-0.015751
-3.61108e-07
-3.74056e-07
-4.20366e-07
0.000483215
-0.0124091
0.0138642
6.96632e-05
-0.000155556
-0.000186003
-5.98884e-05
0.0109293
9.85858e-05
-0.0094806
-5.06558e-08
-3.31594e-07
-3.99681e-07
-3.35728e-07
-0.000106816
0.00614542
-0.00703451
0.00831227
-7.19556e-05
-0.00018003
-0.000154752
-3.22326e-07
-2.01282e-07
-7.49935e-08
-1.27028e-07
-0.000334812
0.0032751
-1.10446e-07
-0.00327554
6.14278e-05
0.00364432
0.000176887
-0.00446921
5.1383e-05
0.000122877
-1.7263e-07
-0.000177478
-1.51176e-07
9.20181e-05
3.28826e-05
0.00234935
0.000386796
-0.00274407
0.000198567
-0.00244062
0.000986206
0.00209303
3.34376e-09
-0.00156652
0.000475951
-0.00197285
-0.000558371
-0.000708789
-8.2517e-05
-0.000453307
-0.000231949
0.000175501
0.000520035
-0.000679531
0.000229813
-0.000704791
0.000520561
-6.56646e-08
-0.000520541
-0.000255837
0.0013974
0.000704816
9.53707e-05
0.000231977
-0.000175474
0.000453256
8.25121e-05
9.79825e-05
-0.000499063
-0.000211352
0.000702932
0.000654957
-0.000149925
0.00016807
0.00092974
-0.00134566
0.00125557
-0.000184643
-6.99169e-09
-2.67488e-09
2.41093e-08
-3.22067e-08
-3.8134e-08
-7.34846e-08
-4.54058e-08
-4.32575e-08
-1.66156e-07
-2.97907e-07
-9.59876e-08
-1.90152e-07
-3.81605e-07
-2.9048e-07
-4.03488e-07
-9.62175e-07
-0.0101518
0.00532224
-0.00453238
0.00754375
-0.00754492
0.00453241
-0.01506
0.00157167
-0.00604373
0.0139665
0.00352475
-0.000332445
0.0130999
-0.0118517
-0.00670632
-0.01769
-0.0056678
-0.00863644
-0.0128708
-0.00725527
0.000679844
0.0062617
0.00192137
-1.73908e-06
-3.03763e-07
-0.00192027
0.0150607
0.00604609
-0.00157172
0.00474775
-0.00352467
-0.0131003
0.000332144
0.0015407
-0.00259902
-0.0109072
0.0037488
0.0165622
0.00426099
0.00759201
-0.00612749
-0.00626303
9.41476e-07
-0.00233065
-0.00474706
0.000342211
-0.000474972
-0.00736914
0.006127
0.00120371
-0.00759233
-0.000217152
-0.000205621
0.00118396
-0.000880832
9.2282e-05
4.72461e-05
-0.00204884
-0.0042354
-0.00222125
-0.000146422
0.011622
0.01012
-0.0126955
-0.0114211
0.000546856
0.00900941
-0.000225961
-0.000227077
-0.00220834
-0.00132729
-2.27828e-05
8.26889e-05
0.000124042
0.000146516
0.000160339
-0.00424991
-0.000271428
0.000115988
0.00428446
-8.6297e-05
-0.00543427
0.00645621
-0.000111163
-0.00756615
0.00587071
-0.00493205
-0.000275696
-0.00688851
-0.000116579
-0.0103592
0.00793013
-0.000336362
-0.009425
-7.71734e-05
-0.0138417
0.0104705
-0.000384859
-0.0125787
7.61505e-05
-0.0179409
0.0135769
-0.000296917
-0.000958064
-0.00412541
-0.0124896
-0.0124582
-0.0197694
-0.00200708
0.0334073
-0.00316131
-0.00325167
-0.00152377
-0.000685976
-0.000418959
-0.000270881
-0.000169069
-7.68606e-05
-3.22299e-06
6.84491e-05
1.97967e-05
0.00604579
2.33608e-07
-0.00604631
0.00718198
6.24098e-07
-0.00843346
0.00843357
-0.00718177
5.34698e-08
-4.03806e-08
4.62259e-08
6.71533e-05
0.000160606
-4.39711e-05
0.00178474
6.71888e-07
-0.00178518
0.00365406
4.18498e-07
-0.00427713
0.00427669
-0.0036537
3.88061e-05
0.00050357
-0.000663113
0.000663161
-0.00037677
-0.000190171
-0.000503723
0.00207737
0.000150616
-0.000546486
0.0026635
-6.25156e-06
-0.00314608
0.00388077
-0.00343934
4.34809e-05
-6.72089e-05
-6.74913e-05
0.000195662
-3.71316e-05
0.00228813
0.000233868
-0.00287917
-0.000153205
0.00265147
0.000263906
-0.00303981
-0.000210219
0.00331271
0.0051163
0.00027587
-0.00587082
0.00756522
0.000111787
0.00493325
-0.00428479
0.00543417
8.63434e-05
0.00351559
0.00023735
-0.0045072
0.00359105
0.0023177
-0.00228856
-0.000142299
-0.00333226
0.000226686
0.00252666
0.00166396
0.000255248
-0.00253217
0.00184465
0.00216456
-0.000618806
-0.000173013
-0.000351294
0.0036298
-0.00028729
-0.000160688
-0.000773506
0.00381576
-0.00163704
-0.00164841
0.000906975
-0.000352909
-0.000364626
-0.000328102
-0.000747122
-0.000530312
5.07494e-05
0.00014194
-3.98228e-05
8.10774e-05
0.000193223
0.000253099
0.000171098
0.000279209
0.000314205
-0.000314915
-0.000253193
-5.99034e-05
-0.000335512
0.000334632
0.000418198
0.00061873
0.00025638
-0.000257474
-0.000324007
0.000324876
0.00122905
0.00757372
0.00723894
0.00218141
-0.0145921
-0.000558028
-0.0142501
-0.000186744
0.00149649
-0.0334075
0.00235223
0.00283684
-0.000114142
8.67894e-05
0.000239034
0.000274012
0.000259459
0.000232491
-2.05902e-05
0.00316864
0.000244561
-0.00380938
-0.000221976
0.0038237
0.000306254
-0.00408462
-0.000275356
0.00468206
0.00719783
0.000336151
-0.00793066
0.0103586
0.000116189
0.00688924
-0.00886271
-3.95017e-05
0.00987133
2.58755e-07
-0.0115437
0.0115435
-0.00987096
3.9163e-05
0.00886279
8.97074e-05
1.93653e-07
3.85769e-07
1.08568e-07
1.046e-06
-3.92205e-05
-0.000417251
-0.00176161
0.000437232
0.000267963
-0.00134196
-0.000649839
-0.000720483
-0.0012558
-0.000391208
-0.00150252
-0.00206254
-0.0019457
0.000183898
-0.00164751
-0.000411119
-0.000661292
-0.00105798
-0.00107621
-0.00106774
-0.00211076
-0.00166719
0.000885137
-0.00164654
-0.0018882
0.00387395
-0.000317177
0.000490606
0.000129498
-0.00196554
-0.00172241
-0.000666387
-0.000138112
-0.000288818
-0.000154314
-0.00295212
-0.000171774
0.00302171
0.00019838
-2.26421e-05
-0.000111198
-0.0039451
0.00450862
0.000272332
-0.00514493
-0.000294166
0.00594011
0.00540767
0.000359233
-0.0054346
-0.000343632
0.00647148
0.00990226
-0.00820919
-8.20141e-05
-0.000109537
-0.00689358
-0.000373065
-0.00624271
0.00020279
0.000204437
0.000190222
0.000160753
-2.70538e-05
-3.9347e-05
-5.11286e-05
0.000154361
0.00017955
-6.56604e-05
6.49698e-05
8.60198e-05
0.000471141
-0.0109249
-0.000123391
0.000120319
0.000614153
-0.0143895
0.000558591
0.000175079
0.000114265
9.00427e-05
7.21399e-05
5.53132e-05
3.5349e-05
-1.23894e-06
0.00465502
-0.00515839
0.00515869
-0.00465457
9.4015e-07
-3.53842e-05
-5.54323e-05
-2.06513e-05
-0.00645593
-6.86326e-05
-4.46702e-05
-6.1833e-05
7.71316e-05
0.000169298
-8.97445e-05
-5.06938e-05
-0.000115664
-0.00014633
-0.000159863
0.00425069
0.000478718
0.000161542
-6.44729e-05
-0.00535999
0.00632396
0.000303166
-0.00718474
0.00864847
0.000295282
-0.00937646
0.0115248
0.000123951
-0.0116222
-0.000615023
0.0143904
0.0150607
0.000194758
-0.0118692
6.30404e-05
0.000476489
0.000160869
1.07188e-05
0.000362399
0.000803612
0.00126425
0.000670854
0.00205765
0.00129275
0.00387957
0.00297685
0.0121395
-0.0363601
0.00132492
-0.00167199
0.0128716
0.00566664
0.0176895
0.00670632
0.0118508
-0.00892567
0.00342122
0.00200736
-0.0119389
-0.000221234
-1.26078e-05
0.000150142
-3.21014e-07
-4.26717e-07
-0.000121272
0.000155117
0.000185498
-8.65657e-05
-0.000115212
-1.87754e-07
-4.43515e-08
-9.044e-05
-7.24699e-05
-6.11597e-05
-0.0118974
0.0132606
-8.70735e-08
-0.0154235
0.0154225
-0.0132608
6.08362e-05
0.0118976
0.00010662
-6.66888e-05
-0.00036545
5.11267e-05
-0.000166682
-0.000337491
-0.000701472
0.000119446
0.0155127
-0.0172677
0.000102268
-5.30207e-07
-4.47499e-07
-4.93365e-07
-2.60919e-07
-0.00671441
0.00126482
0.000149008
0.000213455
-0.000341486
-0.00905772
0.00233091
0.000474438
0.00736829
0.00725564
-0.0139648
0.00863635
-0.00067918
-0.00120536
-4.00192e-07
0.00428999
0.0118521
-7.46742e-05
5.6964e-07
0.000151209
0.000215214
7.40768e-05
-0.0048928
-0.0084873
-0.00852284
-6.92165e-07
0.000210094
-1.41208e-06
0.000642659
6.92727e-07
1.88048e-07
-6.0329e-09
-0.00010685
0.000271415
0.000419062
-0.00011979
-0.00010334
0.000337752
6.69007e-05
0.000826635
0.000487183
0.000201567
-0.000132892
-0.000186859
0.000173069
0.000470614
-0.000142849
-0.00467998
0.000819604
0.00132962
-2.09224e-05
0.0109265
0.000148451
0.000228136
2.39048e-05
0.00132804
0.00221022
0.00222235
0.00423722
0.0124584
0.00204918
0.00412582
0.01249
0.00316088
0.000958163
-0.000152154
0.000685178
0.00143202
0.0032524
0.000703989
-0.000123804
-0.0061303
-0.000164175
-0.000175755
-0.000343866
-0.000208895
3.61234e-06
0.000168673
0.000365428
-0.000176107
-0.00142962
2.98351e-05
8.13688e-06
-7.69519e-06
-0.0034482
4.45933e-05
-0.00351491
-0.000237579
0.00021136
0.000499115
-9.79745e-05
-0.000168119
-1.94117e-07
0.000149946
-0.000655025
-0.000702936
0.000255889
0.00134569
-0.00092971
-6.12436e-05
-0.000391249
0.000376034
0.00019021
0.00036334
-0.00026699
0.000110504
-0.00813768
-0.000295167
0.000539446
-0.00154137
-0.00126438
0.000217151
0.000220082
2.31267e-09
-3.90513e-05
-2.30409e-07
-4.17182e-08
1.44566e-07
-0.000302924
-0.000378491
-0.000244081
-0.000306155
-0.00387375
-0.00362971
-0.00381552
-0.0136636
-0.0103675
0.00177682
-1.46801e-06
-0.00177585
0.0188353
0.00852168
-0.000661888
-0.000415728
-6.22167e-05
-6.66095e-06
0.00266262
-0.00343956
0.00388055
-0.00314588
0.000227078
0.00252659
-0.000773789
0.00381565
-0.00194582
-0.00206297
-0.001637
-0.001648
-0.00188711
-0.00164636
-0.00166704
-0.00211037
-0.00196544
-0.00172178
-0.000558409
0.000490678
-0.000708823
-0.00197266
0.00047584
-8.25215e-05
-0.00156666
6.2869e-08
0.00156656
-0.000475852
0.00197281
0.000558519
0.000708848
-0.000490669
0.000317297
-0.000129534
0.00172216
0.00196547
0.00211044
0.00166707
0.00164643
-0.000885174
0.000351414
0.000287273
0.000773595
-0.000906879
0.00164823
0.00163697
0.00206259
0.00194572
0.00164722
-0.000183906
0.000411317
0.000190148
0.000503956
0.00178515
-9.02795e-07
0.000663088
-0.000503618
-0.000190424
-0.00041082
0.000184466
-0.00054618
0.000150339
0.00207713
4.37542e-05
0.00365349
-0.00365395
-5.05555e-07
-0.0042769
1.22597e-06
-0.0046547
8.60161e-05
0.00351487
0.00359083
0.000237615
-0.00450744
-0.00304029
0.00231708
-0.000142554
-0.00228852
-0.00333261
0.000123211
0.000140428
0.000127537
9.24836e-05
-7.10329e-06
-0.000234342
-0.00039163
0.00429015
-0.00334966
-0.0115672
0.00623429
0.0119016
0.00426133
0.016562
0.00374968
0.00670696
0.0176901
0.00566838
0.0128699
0.00863514
0.00604325
-0.0139648
0.00474712
-0.000341633
-0.00157086
0.0150603
-0.00453017
0.00754466
1.156e-07
-0.00754526
0.00452946
-0.0150611
-0.00604435
0.0139642
-0.0128703
-0.00863518
-0.00566875
-0.0176897
-0.00670647
-0.00375112
0.0109059
0.011856
0.0115667
-0.011902
-0.00426302
-0.00623475
-0.0178835
-0.00758827
-0.0103675
-0.0149303
-0.00648082
0.010196
-0.0130797
-0.00191642
0.021047
-0.0210479
0.0130787
-0.0101967
0.00648124
0.0149299
0.0103674
0.0136644
0.00758884
0.0178834
0.0216695
0.0212967
-0.00392401
0.0188352
0.00702028
0.00852241
0.00667823
-0.000211191
2.81908e-07
0.00021061
-6.52589e-07
0.0118526
-0.0118533
0.000452742
-0.00667794
-0.00852263
-0.00702069
-0.018836
-0.0212973
-0.0216691
-0.0175044
-0.0179976
-0.0197626
-0.0177169
-0.0179197
-0.0214045
-0.0206125
-0.0179193
-0.00589754
0.00167449
-0.00132459
0.0145928
-0.015061
0.0118698
-0.011524
0.00937798
-0.00864786
0.00718503
-0.00632357
0.0053608
-0.00450789
0.00394556
-0.00316839
0.00295227
-0.00228801
-0.0021643
-0.00184445
-0.00166366
-0.00252661
-0.00266323
6.21865e-06
0.00343933
-0.00207732
-0.000150525
0.000546514
-0.0038157
0.000482609
-0.000123416
-0.000140586
-0.000127826
-9.30185e-05
6.88068e-06
0.000233672
0.000390601
-0.00429065
0.00334951
0.00118373
0.00326625
-0.000881131
0.00809151
-0.00809157
-0.00326641
-0.00118419
0.000880943
0.00254742
-0.0118567
-0.0109062
0.0118509
-0.0130995
-0.00352392
0.000333283
0.00154077
-0.00259812
0.00235212
0.00283684
-5.31843e-07
-0.00283688
0.00352377
-0.00474773
0.00905504
0.000340574
0.0101501
-0.0101515
-0.00905645
-1.29123e-06
0.00643396
0.00671271
-0.00671453
0.001265
-0.00643569
0.000474352
-2.65135e-07
0.00626053
0.00067745
-0.00725608
0.00192021
-6.84655e-07
-6.01472e-07
-2.67282e-07
0.00878699
-0.00670753
-0.0197518
0.00433808
-0.0161122
0.0195543
-0.0185107
0.016492
-0.0164933
-0.00179224
-0.0147941
-0.00111261
0.0138777
-0.0117901
-0.00040449
0.010673
-0.00909901
-0.000113051
0.00799323
-0.00681929
2.3082e-05
0.00582966
-0.00500142
0.000114444
0.00416949
-0.00365332
0.000213642
0.00299077
-0.00274429
0.000386826
0.00234923
0.000986106
0.00209278
-0.00209302
8.23682e-05
0.000453171
-0.00103128
-0.000928388
-5.14689e-08
0.000646176
-0.000646275
-0.000707714
-7.44506e-08
0.000730638
-0.0007307
-0.000566262
-1.32798e-07
0.0013605
-0.00136083
3.84944e-05
-5.98628e-07
-0.000377209
0.000378408
-0.000267964
0.00134194
0.000649885
0.000720388
0.000391308
0.00150245
0.000562051
-0.00124952
-0.000253195
0.000929808
-0.00134565
0.00125581
0.000654994
0.000703009
0.000242937
0.00139728
0.000261019
-0.00107255
-0.000190783
0.000219936
-0.00103927
0.0012843
0.000180667
0.000193521
-0.000195825
-0.000232791
-0.000259883
-0.000274339
-0.00023925
-8.69286e-05
0.00011426
0.000558982
0.014249
0.0119402
0.0113337
0.0158994
-0.0171438
0.0134725
-0.0132794
0.0106928
-0.0099029
0.00820999
-0.00719855
0.00613085
-0.00511667
0.00450744
-0.00359118
0.00333249
-0.000226806
0.00314592
-0.00388092
0.00427708
-0.00515861
-1.26395e-07
0.00515795
-0.00604638
0.0054338
-0.00428499
0.00493253
-0.00645608
0.00011128
-0.00587132
0.000275938
0.00511586
-0.00021018
0.00331196
0.00382309
0.000306274
-0.0046802
-0.00514536
0.00424993
-0.00022198
-0.00344859
0.000263852
0.00265099
-0.00253244
0.000255561
0.00166356
-0.000160831
-0.000287277
0.000906759
-0.00128435
-0.000562101
-0.00150254
-0.000391266
-0.000720345
-0.00064954
-0.00134151
0.000266917
-0.000363353
-3.83876e-05
0.000598059
-6.0758e-05
-0.000929794
-1.87474e-05
0.000253091
0.0013457
0.00124954
0.00103926
-0.000220064
-0.000197146
0.000566231
-1.14609e-07
-1.74304e-07
-1.80579e-07
-3.77536e-08
-2.64249e-09
4.3872e-08
9.35408e-08
-1.65583e-07
-2.32166e-07
-3.81669e-07
7.51803e-08
0.00437208
-0.000218821
-0.00759331
0.00120426
-0.0165619
-0.00736957
0.0130983
-0.000333654
-0.00154174
-0.00126584
-0.00014967
0.000186524
-0.00149687
-0.000781501
-0.00495663
-0.0047819
0.0103369
0.0147675
-0.0224629
0.000214444
0.019384
-0.0163089
0.0182502
0.000327917
-0.00412511
-0.0124899
-0.0124569
-0.0121369
-0.00723659
-0.00757201
-0.00122844
-0.00297931
-0.00218021
-0.00388026
-0.00205652
-0.00129249
-0.000618114
-0.000418326
-0.000669734
-0.000159999
-0.000476025
-0.000147415
-0.0143895
-0.0126958
0.010119
0.00900842
0.000546906
-0.0114208
0.000538137
0.000220504
-0.00235284
0.00259743
-0.00254887
-0.000206186
0.00612628
-0.00047603
-0.00233189
0.00157031
-0.00532275
-0.0011645
-0.00542671
6.72554e-07
5.03883e-07
9.15066e-07
1.73014e-08
-4.93508e-07
-5.85495e-07
-5.38153e-07
-1.11696e-06
-5.30184e-07
-2.20441e-10
1.16157e-07
-0.00053038
0.000530328
0.000746945
3.95594e-05
-8.09395e-05
-0.000171114
-0.000279169
-0.000362314
-1.02647e-05
-0.00126312
-0.000803038
-0.000478425
-0.00016062
6.49875e-05
0.000143762
-0.00593986
-0.00540813
0.00468009
0.00408449
0.00027537
-0.0046811
0.00543384
0.000343023
-0.00647032
0.00707332
0.000422172
-0.00873245
-0.000226502
-0.00995628
0.00809567
0.000471376
-0.0109249
0.0116214
0.000614834
0.000120678
1.21827e-05
-0.000150578
-0.000378969
-0.00744922
0.00624336
0.000373101
-0.00813849
0.00905066
-0.00029545
2.18595e-05
-0.00222091
-0.00423592
-0.00200667
-0.0034204
0.0089252
-0.0118513
0.0363588
-0.00204924
0.00928965
-0.00316117
-0.00848448
-0.00489238
-0.00152442
-0.00325217
-0.000957462
-0.000226821
-0.0022085
-0.00132684
-0.00132843
-0.000818586
-0.000470032
-0.000172811
-0.000198074
2.32687e-05
0.000111504
0.000160581
-0.0042501
-0.00382343
0.00344875
0.00303992
0.000209872
-0.00331175
-0.000306041
-0.000205035
-0.00020328
-0.000359362
5.07699e-05
0.00029398
0.00514479
-0.000271884
-0.000154722
0.00681916
-8.77278e-06
-0.00799391
0.000113679
0.00909871
-2.97032e-05
-0.0106739
0.000405557
0.0117893
-6.27043e-05
-0.0138781
0.00111307
0.0147939
-0.000195173
-0.0175384
0.00302251
0.0190445
0.00413431
0.00135689
-0.000214166
0.000213334
-0.0190453
-0.00302139
0.0175381
-0.0013582
0.0185099
-0.00878791
-0.0195547
-1.41647e-07
0.0161119
-0.00433955
0.0197508
0.00589688
0.00670643
0.00116389
0.00532231
0.00233072
-0.00192133
-0.00626208
0.00725624
-0.000678272
0.00736907
-0.0061269
-8.43484e-07
-2.77299e-07
-4.09554e-07
-4.39849e-07
-4.64655e-07
-4.42788e-07
0.00179213
-0.0157511
0.0138636
-0.0124089
0.0109295
-0.0109308
-9.93447e-05
0.00947981
7.21445e-05
-0.0083124
3.83362e-05
0.00703346
6.02506e-05
-0.00614582
0.000106692
0.00509326
5.16282e-05
-0.00446915
0.000177125
0.00364434
6.13576e-05
-0.00327578
0.000334616
0.00260839
0.000198536
-0.00244079
-8.04378e-08
0.00244051
-0.000986071
-0.00234934
-0.000386821
0.00274406
3.71308e-05
-0.00299072
-0.000213392
0.00365341
2.04691e-05
-0.0041698
-0.00011433
0.005001
7.37505e-06
-0.00583019
-2.29228e-05
-6.04449e-05
0.00614489
-2.56904e-07
-0.00509411
0.0044687
-0.00364495
0.00327533
-3.51657e-07
-0.00260865
-0.000198602
-3.29633e-05
-9.22745e-05
-6.14719e-05
-0.000141578
-0.000193519
-0.000253737
-0.000315192
-0.0003353
-0.000256684
-0.000323819
0.000323679
0.00542654
0.00757185
0.00122826
0.000255169
0.0157497
-7.04847e-05
-0.0138653
-0.00048483
0.0124073
5.95674e-05
0.000185384
-7.10458e-08
0.000485235
-4.17601e-07
-2.22398e-07
9.98442e-05
-0.00948063
0.00831121
-0.00703475
-3.86232e-05
-4.35475e-07
-5.74672e-07
-2.91057e-07
-0.000107039
-2.85873e-07
-0.000177089
-3.94574e-07
-1.25377e-07
-0.000334341
-8.74337e-08
-4.69834e-09
0.00103121
-0.000453209
0.000475469
-0.000653755
0.000653662
-0.00047543
0.00144127
-0.000175444
0.00059563
-0.00136374
-0.000294683
3.86455e-05
-0.00122094
0.00129839
0.000538098
0.00153287
0.000416144
0.000719208
0.001307
0.00067953
-0.000229697
-0.000520069
-0.000175504
1.2708e-07
-7.39377e-08
0.000175397
-0.00144126
-0.000595568
0.000175358
-0.000490254
0.000294526
0.00122095
-3.86385e-05
-0.000196662
0.000190711
0.00107259
-0.000261033
-0.00139729
-0.000242933
-0.000703011
0.000520588
0.000520092
-7.97324e-08
0.000231998
0.000490222
2.2789e-06
9.53606e-05
0.000704842
-0.000520569
-0.000255886
-5.79681e-08
-9.53631e-05
-0.000232028
0.000928384
-2.41511e-06
3.28586e-05
-1.78494e-07
-1.80666e-07
-2.66626e-07
-1.9278e-07
-2.37938e-07
-1.48691e-07
-0.000155208
7.05936e-05
0.000154708
-0.000114103
0.000194726
-0.014593
-0.000557763
0.0143901
-0.000615211
-0.0101202
0.000226043
0.00873238
-0.000422375
-0.00707475
-0.0106928
0.000384334
0.00942459
-0.0118976
7.63939e-05
-0.0104717
0.0125776
-0.0155135
-7.58846e-05
-0.0135789
0.000296772
0.0132779
-0.013472
-0.0090109
0.0114212
-0.000546792
0.017143
-0.000326926
0.0163091
-0.0193841
-0.000214402
-0.0182509
-0.0158993
-0.0113347
-0.000537917
0.0126949
-0.0119394
-0.0142503
0.00342038
-0.000186629
0.0014966
-0.033407
0.000781852
-4.81003e-05
0.00495595
-0.0353426
0.00478267
-0.014768
-0.0103382
0.00489153
2.74895e-07
7.41742e-05
0.000642445
0.0248723
-1.89196e-07
0.0214105
-0.0214102
0.0002147
-0.0179407
7.63912e-05
0.0155139
-0.012578
0.0135771
-0.000297014
0.01047
-7.70602e-05
0.0118981
-0.00942419
-0.00038464
0.00792963
-0.000116966
0.00886321
-0.00688814
-0.000336726
-0.000826054
-0.000486797
-0.000201158
0.000133091
0.000186911
0.000138119
0.000288809
0.000154718
0.000172101
-0.00302125
-0.0026515
0.00253241
0.00228839
0.000142169
-0.00231725
-0.000263931
-0.0001906
-0.000161014
-0.000255097
6.73273e-05
0.000173019
0.000618843
-0.00387381
0.0010676
0.000666046
0.000328022
0.000364745
0.00107608
0.00188778
-0.00362974
0.000353101
0.000164603
0.000146712
0.00012447
8.30166e-05
-2.30037e-05
-0.000337926
-0.00143203
-0.000685095
-0.000419151
-0.000704726
-6.7408e-05
0.000106728
0.00011904
-0.0138424
0.0154233
1.05524e-07
0.0132609
-0.0132605
6.13734e-05
0.0115438
-1.09182e-07
0.00987143
-0.0098715
3.89862e-05
-0.00756558
-0.00011169
0.00645619
-0.00493266
0.00587048
-0.000275882
5.01502e-05
-0.00036599
-0.000271382
-0.000169331
-0.000169011
0.000116084
6.84773e-05
-0.00543462
-8.65369e-05
0.00465463
-0.00351535
0.00428451
-0.000237363
0.000175911
-3.70693e-06
-7.69694e-05
6.21905e-05
0.000208949
0.000343993
0.00105802
0.000661195
0.000417373
0.00176148
-0.000437297
0.000745162
-1.53217e-06
-0.000734484
0.000432572
-0.0017596
-0.000376077
-0.000390399
-1.04897e-06
-2.03742e-07
4.4512e-05
-1.10973e-06
3.51698e-05
2.68504e-05
0.000152978
0.00287935
-0.000233451
3.90044e-05
0.000221921
0.00380952
-0.000244174
-0.000123156
-5.17693e-05
0.000122685
0.000154226
0.000179578
0.000239363
8.70601e-05
6.26626e-05
-0.0118706
0.000123833
0.0109247
-0.000471987
-0.00809588
0.00037944
0.00647012
-0.000343351
-0.00543524
-0.00820925
0.000337385
0.00688844
-0.00886299
0.0001163
-0.00793088
0.0103582
-6.12374e-05
-0.0115436
-0.000106631
-2.85266e-07
2.09771e-09
-7.87491e-07
0.000151947
-0.000151384
-7.4167e-05
-0.00064307
0.0224619
-0.0248734
-9.29034e-05
0.000148896
-0.000121061
-0.000220802
-1.21398e-05
-1.5047e-07
8.63524e-05
-0.000185549
-5.94996e-05
-0.000179774
-7.2078e-05
6.5165e-05
-7.06042e-09
-1.93187e-07
-2.72696e-07
-2.45767e-07
-1.81013e-07
-5.88765e-08
-2.98672e-08
-0.000193524
0.000195775
0.000232472
0.00025959
0.000274033
7.86566e-06
-0.0071855
0.000303391
0.00593952
-0.000294095
0.00540711
0.000359424
0.00468111
-0.000275927
-0.00408505
-0.00613087
0.0071972
-0.000124234
-0.000143918
-6.59309e-05
0.000278624
0.000417619
0.000617347
0.000335321
0.000315135
0.000253889
0.000193685
0.000170868
8.09236e-05
0.000141662
5.06169e-05
-3.9848e-05
-0.000747122
-0.000666602
-0.000328362
0.00228805
0.000233805
0.00216422
-0.000173268
-0.000351423
0.00362984
-0.000180758
0.000160801
0.000190291
0.000204616
0.00020295
0.000150557
-8.64229e-05
-6.55567e-05
-0.000373638
-0.00689412
-0.00624338
0.00744843
0.00813835
0.00864743
0.000295944
-0.00937755
2.92059e-05
0.0115241
0.000158234
0.000475725
0.015059
0.00217838
0.00132472
-0.0363604
0.020614
0.0179228
-0.00167499
0.00723482
0.0121373
0.0214063
0.0179208
-0.00892591
0.0177147
0.0197682
0.0179998
-0.00929032
0.0175046
0.0124882
0.0124584
0.00200718
0.0038785
0.00298334
0.00205659
0.00127836
0.00126275
0.000659873
8.46179e-06
-0.000110921
-2.20878e-05
-0.00905129
0.00995404
0.000147201
-0.0116228
0.00423575
0.00222032
0.0013279
0.000818004
0.000802084
0.000355979
0.000477614
0.000272022
0.0045075
-0.00394544
0.000244529
0.00302132
-0.000153327
-0.00287942
-0.00295224
-3.71603e-05
0.00316818
-2.06073e-05
-0.000154705
-0.000112292
0.000155054
-0.00016057
-0.00381002