/*--------------------------------*- C++ -*----------------------------------*\
| =========                 |                                                 |
| \\      /  F ield         | OpenFOAM: The Open Source CFD Toolbox           |
|  \\    /   O peration     | Version:  2306                                  |
|   \\  /    A nd           | Website:  www.openfoam.com                      |
|    \\/     M anipulation  |                                                 |
\*---------------------------------------------------------------------------*/
FoamFile
{
    version     2.0;
    format      ascii;
    arch        "LSB;label=32;scalar=64";
    class       volScalarField;
    location    "2.6";
    object      gradTx;
}
// * * * * * * * * * * * * * * * * * * * * * * * * * * * * * * * * * * * * * //

dimensions      [0 -1 0 1 0 0 0];

internalField   nonuniform List<scalar> 
2658
(
0.0086617
0.0126184
0.00405213
-0.000400382
-0.0185565
-0.0156991
0.0166162
0.0163931
-0.000319209
0.0223015
-0.0148871
-0.0106642
0.00699753
0.00840008
0.00645108
-0.000614953
-0.000287861
-5.55651e-05
-0.00708464
-0.00913636
-0.00862025
-0.020053
-0.0241006
0.0182083
-0.00774759
-0.00947376
-0.0204057
-0.00297647
-0.0149469
-0.0160018
-0.0149468
-0.020406
-0.00947556
-0.0241029
-0.00774738
0.0182083
-0.0101386
0.00463091
-0.0200492
-0.00862198
-0.00913568
-0.00708244
-5.61377e-05
0.000615056
-0.012479
0.0116808
-0.0148874
-0.000540532
-0.000617758
0.00644963
0.00839964
0.00699889
0.0190096
-0.00406041
0.0214096
0.0175729
-0.00944304
0.000979928
-0.0336396
0.0177723
-0.00944313
0.0175732
0.0214057
-0.004062
0.00471793
-0.0354222
0.00465221
-0.000238567
-0.0117529
-0.0117539
-0.000564474
0.0119626
-0.000697739
-0.0131607
0.000217547
-0.0138521
0.0177808
-0.000140896
-0.0155667
0.0174187
-0.0204058
-0.000365031
0.0214925
-0.0194676
-0.000522825
-0.000325058
-6.40233e-05
5.45701e-05
9.54985e-05
0.000104744
9.16261e-05
-0.000266938
0.000237981
-0.00159887
0.00108968
-0.000192238
-0.00135345
7.32332e-06
0.00136304
-0.00110752
0.000603418
0.00154458
0.00133535
0.00111166
0.00115589
-0.00231273
-0.00044902
-0.000320429
-0.000104577
0.000641928
0.00137546
0.000552862
0.00109628
0.000552839
0.00137554
0.000641838
0.00115586
-0.00231268
0.00133535
0.00111171
0.00154459
0.0006034
-0.00110753
0.00136306
-0.00213646
0.00214562
-0.00159875
-0.00019214
-0.00135348
0.00108964
-0.000614137
-0.00150445
-0.00103729
-0.000943443
-0.000596945
6.65201e-05
-0.000273935
-0.00158235
0.00130886
0.00130809
-0.000273708
6.63242e-05
0.000636767
-0.000659318
-0.000757937
-0.000657808
0.000366131
0.000475742
-0.00131787
-0.00137139
-0.00114508
-0.00144743
-0.00142009
-0.00147286
-0.00113201
-0.00201359
-0.00183842
-0.000774051
-0.000880699
-0.000639379
2.60668e-06
1.72219e-06
-3.95529e-06
0.00061764
0.000877689
0.000791221
0.0018798
0.00232579
-0.00053148
0.00140746
-0.00356323
0.00395256
-0.0045956
0.00543688
-0.00631317
0.00751113
-0.0086726
0.0102109
-0.0116839
0.0135741
-0.0153216
0.0176849
-0.0195135
0.0231246
-0.0231464
0.0245995
-0.0254007
0.0223013
-0.0185582
-0.000401192
-0.0156985
0.0046522
-0.0354193
0.00471894
-0.0106645
0.00418564
-0.000523128
-0.000325062
-6.43178e-05
5.41325e-05
9.54824e-05
0.000104834
9.16532e-05
-0.000266972
0.000238055
6.13435e-06
-0.000576496
-3.48777e-05
0.00081219
0.000812192
-0.000576598
6.07237e-06
-3.48092e-05
0.000269069
0.00214572
-0.00213656
0.000147451
0.00164849
-0.000157846
5.98266e-05
-0.000245058
3.74593e-06
2.39634e-05
0.000227867
0.0001444
0.000227796
-0.000158049
-0.000448998
-0.00106184
-0.000320402
0.000237708
0.000237598
-0.00106182
-4.6558e-05
0.000664072
-0.000787138
-0.000787049
1.36676e-05
0.000664059
-1.44263e-05
-0.000145949
-0.000191583
-0.000175919
0.000796385
-0.000178197
-5.92364e-05
-0.00131765
0.000184537
-0.000528783
0.000821342
0.00087974
0.00194724
0.00138243
-0.00359517
0.00233472
-0.0037517
-0.00375157
-9.47578e-05
-0.00376352
7.868e-05
0.00412547
-0.00498759
5.71909e-05
0.00575745
-0.00685181
1.0843e-05
0.00793238
-0.00930239
-6.7607e-05
0.0106815
-0.0122845
-0.000203737
0.0140765
-0.0156376
-0.000381913
0.0186064
-0.0187318
-0.00101848
0.0281188
0.00455116
0.0325044
0.0325038
-0.00297631
0.00707942
-0.00261769
0.0102842
0.000508249
-0.00656758
-0.00656765
0.00711743
-0.000359485
-0.00841048
-0.00841017
0.00225118
-0.00266554
-0.0117925
-0.0117916
0.00388146
0.016599
0.0038809
0.00626393
0.0181222
0.00760408
0.0103972
0.0136965
-0.0203595
-0.0118527
0.0118247
0.00760679
-7.01857e-06
0.00225089
-0.00134552
-0.00343253
0.0143019
-0.010366
0.00642735
0.0149288
0.00853447
-0.0044905
-0.00605613
-0.00448961
-0.00343247
-0.0118505
-0.0203596
0.00760675
0.0181249
0.00626581
0.0118264
0.0076081
0.00853568
0.014928
0.0064247
-0.0103666
0.0143014
0.00178478
0.0128736
-0.000329116
-0.0134447
0.0209377
-0.000336061
-0.00374074
-0.0215665
-0.000403274
-0.00252751
0.000144854
0.00012073
5.82935e-05
3.34769e-05
1.86155e-05
1.74219e-06
-9.9024e-06
-7.36286e-05
0.00358454
-0.00387325
0.00391177
-0.00351506
0.00384007
-0.00471078
0.00539268
-0.00649579
0.00751302
-0.00889317
0.0102802
-0.0119297
0.0137244
-0.0155656
0.0177792
-0.0194673
-0.000320358
0.016392
0.0166135
0.0119651
-0.00953993
0.000202613
-0.00953839
0.00927741
0.012804
0.0126937
-0.0106837
-0.0103918
0.000323909
0.00953972
4.46988e-05
0.0137265
-0.000194472
-0.0157158
0.0153309
-3.23216e-05
-0.0133498
0.0123482
-0.0143884
-3.51586e-05
-0.0174023
-6.21121e-05
0.0198151
-0.0216215
-0.000110896
-0.0254
-0.00078097
0.0116811
-0.000539951
0.00178523
-0.0215664
-0.00374058
0.000686989
-0.000266652
-0.000246273
-0.000209254
-0.000130859
-6.68343e-05
-3.06134e-05
-1.21742e-05
-3.22933e-06
2.85478e-06
2.3981e-05
3.61717e-06
-0.000245099
1.3523e-05
5.98278e-05
0.00164847
0.000147372
-6.61601e-05
-0.00190155
0.0016748
-0.00167191
0.00184035
-0.000747254
0.00358782
-0.000957142
0.00239564
0.000169347
-0.00314842
-0.00317131
0.00293109
9.58536e-05
-5.95602e-05
-0.000393772
1.07537e-05
0.000447309
0.000885683
0.00112946
-8.12149e-06
0.000165797
0.000441936
4.98154e-05
-8.10319e-05
-4.35894e-05
-0.00013362
-0.000227102
-0.000188601
0.000108917
0.000143329
5.32156e-05
-0.00400315
0.00431779
-0.00524241
0.00528878
-1.96395e-05
-0.00437622
-1.65753e-08
1.60411e-06
2.81236e-06
5.87337e-06
-0.000141572
-0.000207442
-0.000368096
-0.000347618
-0.000505131
-0.000633992
2.85187e-06
7.34503e-05
7.5571e-05
-0.00788341
0.00843543
-0.00994148
0.0100116
-7.3038e-05
-0.00859831
0.00730719
-4.62663e-05
-0.00616968
-4.30943e-06
0.00606661
-0.00724891
1.77087e-05
-0.00565143
0.00487468
1.84674e-05
2.42455e-06
-0.000104106
-0.0037631
0.000122984
0.00295831
0.000126961
-0.00351296
-0.00190553
0.000619222
-0.000169819
-8.84026e-06
-3.14482e-05
4.44173e-05
-5.29616e-05
7.36584e-05
-0.000412152
-0.000710711
-0.000485395
5.80587e-05
-0.000244939
-0.000180046
-6.62811e-05
8.54285e-05
0.000167102
0.000257654
8.06132e-06
7.85414e-06
-0.000296405
-0.000462517
-0.00110288
-0.000718126
-0.00133913
-0.00246952
-0.000535252
-0.000148471
5.26703e-05
-0.0143879
0.0153302
-0.0174028
0.017419
-0.000194733
-0.0157145
0.0134163
-0.000114105
-0.0117624
-1.63411e-05
0.0115127
-0.0133494
-5.3881e-06
-0.0107876
0.00922799
1.04539e-05
4.24632e-06
7.13231e-06
-0.000113155
-0.00498742
6.7054e-05
0.00412553
7.90249e-05
0.000290152
-0.00477935
0.00528578
-0.00651482
-0.00651492
-1.55713e-05
0.00741744
7.41403e-05
-0.0088972
-1.22006e-05
0.0101366
-2.05063e-05
-0.0118629
-1.26101e-06
0.0134892
-0.00026019
-0.0151742
8.61879e-05
0.017582
-0.00103735
-0.0181303
0.000547596
0.0230973
-0.00391515
-0.0179765
-0.00241201
-0.017976
0.00455124
0.0281188
-0.00101778
-0.0187307
-0.000786023
0.018606
-0.000380421
-0.0156372
-0.000406378
0.0140774
-0.000202421
-0.0122824
-0.000184304
0.0106822
-6.65941e-05
-0.00930191
-6.78782e-05
0.0079325
1.17606e-05
-0.00685156
5.8632e-06
0.00575749
5.79206e-05
0.000155036
-0.000205364
-0.000215023
-0.000204482
0.00109439
9.74493e-05
-0.000428678
-0.000530189
-0.000566873
-0.000653007
-0.000779543
-0.000844804
-0.000577745
0.000425394
0.00162901
-0.00137692
-0.011448
-0.0114482
-0.0118248
-0.00975034
-0.00356518
-0.00128021
-0.00527899
0.0087189
0.0143196
0.000253541
5.51761e-05
0.000862242
-0.0039147
0.023096
0.000547925
-0.0181302
-0.00164002
-0.000476602
-0.000480116
8.73215e-05
-0.0151739
0.0175818
-0.00103711
7.13565e-06
-0.000139335
-0.000260184
0.0134876
-6.72049e-07
-0.0118621
-0.000294312
-0.000430655
-0.000362621
-0.000282581
-1.50557e-05
0.00741749
-0.00889708
0.0101364
-2.02603e-05
-0.000155305
-0.000136095
1.57212e-05
8.03858e-06
-8.59538e-06
-0.000119739
-9.45367e-05
0.0036763
0.000236984
0.00367636
0.000289578
-0.00477937
-3.21902e-05
0.00528606
0.00015506
-0.000113113
-0.000197316
-3.198e-05
9.19637e-05
-0.000103944
-0.000169702
-0.00351309
0.000127038
0.00295834
0.000618924
0.00233456
-0.00052878
-0.00359541
0.000292439
0.00138239
0.00194708
0.000879708
0.00232598
0.000821332
0.000288119
-0.000738392
0.000411303
-0.000178266
-0.000191532
0.000796369
-0.000176036
0.0001213
6.21226e-06
7.46814e-06
6.11371e-06
2.0725e-06
7.30894e-06
0.000121331
-1.43752e-05
0.000411314
-0.00010454
-0.000738389
0.000288253
6.09663e-06
0.00023638
0.000201041
-0.000127504
-0.000779819
0.000235638
-0.000408838
0.000761919
0.00232999
-0.00134172
0.000463146
0.000213606
0.000118919
9.95889e-05
1.61621e-05
-1.51974e-06
1.42161e-06
-5.62806e-06
-1.45225e-05
-3.41505e-05
1.75168e-05
2.20967e-05
5.55879e-05
0.00016206
-0.00130466
-0.00332636
0.0137807
-0.00261765
0.00708062
-0.0152365
-0.00701884
-0.00701903
-0.0152381
-0.00774967
2.06313e-05
-0.0137118
0.02314
0.00156008
-0.00095818
-0.0168215
-0.00158323
0.00978489
-0.00735597
-0.0160005
-0.013178
-0.0138072
-0.0092934
0.000862843
0.0019293
0.000864348
0.000223957
-0.0129413
0.000865371
-0.00774777
-0.0137113
2.23236e-05
0.00444405
0.00155996
-0.0168226
-0.00095772
0.00209866
-0.000336137
0.0209377
-0.013447
-0.0003277
0.0128759
0.00102693
-0.0005818
0.00192944
0.00156114
-0.00438714
0.00444391
0.00309666
0.000163557
-0.00153407
-0.000581113
-0.000193411
0.00102603
-0.00187615
-6.87482e-06
-0.00134505
0.000687472
-0.000266712
-0.000781419
-0.000284411
-6.73501e-05
-6.76011e-06
1.10472e-05
-0.0185916
0.0198149
-0.0216228
0.0214939
-0.000365144
-0.0204052
-6.21135e-05
-0.000265252
0.000624529
0.000388273
-0.00018189
-0.000142736
-0.000114216
-9.10303e-05
6.72094e-05
0.00674247
-8.89884e-05
-0.000128987
-0.00434049
0.000170347
-0.00433623
0.00493927
0.000222147
-0.00592692
-0.00597199
0.0050362
0.000123092
0.00699373
0.000285882
-0.00795619
-0.00808391
0.000107042
0.00954018
0.000322613
-0.0103905
-0.0106846
4.4254e-05
0.0126943
0.000216884
-0.0131599
-0.0138539
-0.000140021
0.00087377
0.00141722
0.00462654
-0.000256727
-0.000279818
-0.00015794
-0.000464225
0.00310745
0.00324596
0.0040509
0.00216378
0.00131105
0.000834906
0.000526801
0.000290026
-2.93008e-05
-0.000123514
-0.000233031
-0.00311835
0.000216555
-0.00311699
0.00358035
0.000275407
-0.00429873
-0.00430004
0.00358154
0.000150523
0.000127699
9.6464e-05
-3.1801e-05
2.75638e-05
-0.000201429
-0.000292852
0.0032519
-0.000291783
0.00190081
0.000206021
-0.00218521
-0.0021871
0.00190298
-0.000175217
0.00103803
-0.000209756
-0.000211138
0.00150637
-0.000170473
0.00103908
-0.00095832
0.00358897
-0.000746665
0.0029311
0.000169244
-0.0031704
-0.00315006
0.00239842
-0.000201248
-3.17932e-05
-8.84822e-06
-9.79635e-06
0.000122903
-0.00356331
-7.31826e-05
-0.00400325
1.88274e-05
-0.00524261
-4.06545e-06
-0.00616967
-4.6747e-05
0.00730786
-0.00649627
0.000123964
-0.00597112
-0.0059283
0.000221515
0.0050362
-0.00433969
-0.0043373
0.000169762
0.00364166
0.000126646
0.00539337
-0.0047115
0.00528876
-0.00437649
-1.9882e-05
0.00384114
9.6229e-05
-0.00351584
0.00391204
-3.54143e-08
0.00431796
-0.00387356
0.00358453
-0.00190169
-3.14736e-05
0.00167483
2.9382e-05
-0.00167224
2.75707e-05
0.00184114
0.00121707
-0.000639337
2.7017e-06
7.35784e-05
-5.27471e-05
4.43619e-05
0.000441764
0.0011295
0.0010945
-0.000204662
-0.000215194
-7.98988e-06
-0.00013391
-0.00020652
-0.000236925
-0.000227191
-0.000347426
-0.000286046
-0.000284059
-0.000235809
7.40735e-05
-0.000253056
-0.000256792
-0.000504239
-0.000718492
4.97453e-05
5.45736e-05
0.000486878
0.000486379
-0.00134097
-0.0118254
-0.00976009
-0.00356951
0.0231233
0.000128819
-0.0231469
0.000252575
-0.0124789
-0.000463936
-0.000403192
-0.00252747
0.000144897
0.000120747
5.87256e-05
3.36182e-05
1.87309e-05
1.91602e-06
6.68048e-05
-0.00459566
-9.36406e-05
-0.0056513
1.76098e-05
-0.00724924
-7.65769e-06
-0.00859861
-7.33787e-05
0.0100123
-0.00889373
0.000107405
-0.00808323
-0.0079578
0.000285731
0.00699309
0.00693366
-0.000309236
0.00502152
0.000337227
-0.00577605
-0.00577734
0.00502282
-0.00030917
0.00693212
-0.000126286
0.000540672
0.00030397
0.000125283
0.000573005
-0.000175101
-0.000485821
-0.00113078
-0.00148045
-0.00110456
-0.00059682
-0.000943807
-0.00103771
-0.00134129
-0.00150472
-0.000614239
-0.000880743
-0.000774042
0.000463765
-0.00183876
-0.00201432
-0.00071075
-0.000393943
1.07123e-05
0.000447149
0.000877519
0.000617459
-6.63758e-05
-3.86041e-06
1.44076e-06
-0.000996148
0.0014076
-0.00190559
-0.000531556
0.000791579
0.00187958
0.000885211
5.00782e-05
0.000165679
0.000142999
0.00395279
5.31963e-05
0.00487493
-8.11602e-05
-4.26732e-05
0.000108224
0.00543704
-0.00631388
-8.84825e-05
-0.00788474
9.97261e-06
0.00922759
-0.00994172
-1.57884e-05
-0.0117628
-0.000114608
0.0134163
-0.0119298
0.010282
-0.000142179
7.45064e-05
-0.0107888
-6.26381e-06
0.0115132
-3.04898e-05
-1.19839e-05
-3.09948e-06
2.9926e-06
2.5481e-06
7.44352e-06
4.23111e-06
-0.000135953
-0.000155015
-6.45335e-06
-6.35826e-06
-2.0704e-05
-3.5299e-05
0.0160288
4.74658e-05
-1.52275e-05
-6.77783e-05
0.0197997
0.000129769
-0.000328028
-0.000207255
-0.00014416
-0.000104215
-7.39841e-05
-4.51598e-05
-0.000169867
0.00348258
0.00255002
0.00254866
0.00348451
-0.000169758
-4.51357e-05
-7.41376e-05
-0.000232752
0.00494099
-0.000123204
-0.000104339
5.84511e-05
0.000290538
0.000527041
-0.000126237
-7.49448e-05
-0.000128455
-9.09285e-05
6.75518e-05
0.00674286
-0.000142214
-0.000187105
7.24475e-05
0.00751127
-0.00867289
-8.46977e-05
0.0102109
-0.0116844
-5.85054e-05
0.0135738
-0.0153233
4.79824e-05
-0.0185928
-6.75529e-05
0.0197973
-0.0195158
-0.000787141
0.0176839
-0.000408212
-0.000535405
-0.000149664
1.83489e-06
-0.000366183
-0.000208265
-0.00029841
-0.000629033
-0.000464171
-0.00109457
-0.00128021
-0.00247468
-0.00528266
0.00871756
-0.0101389
0.0046284
-0.0138086
-0.0160009
-0.00735631
0.00978253
-0.00158579
0.00061384
0.0143178
-0.000157779
0.0245991
-0.000209298
-0.000130941
-6.7116e-05
-7.26211e-05
-0.00014158
-1.55494e-05
7.04502e-06
-0.000139453
-2.0925e-05
-0.000207284
7.83144e-05
0.000147208
-0.000144074
-0.000103961
-0.00039727
0.00953404
0.00691357
0.000358318
-0.00753114
-0.00753238
0.00691501
-0.000397451
0.00953268
-0.00010404
2.77437e-05
0.000320376
-7.61463e-05
0.00013306
0.000277363
0.000653187
-1.86452e-05
0.0128011
0.00927908
-0.000512212
-0.000114253
-0.000349369
0.00237554
-0.000156771
0.00711747
-0.000214401
5.51084e-05
0.000862257
0.003096
0.0102848
-0.00438745
0.00016298
-0.00153528
-0.00929337
0.023138
-0.0131776
0.000861937
-0.000193563
-0.000917639
0.00418512
0.000978876
0.0019115
0.00422439
0.00015404
-0.000697712
0.00191061
0.0126181
0.00866903
0.0219962
0.0120996
0.0177726
0.0197523
-0.000237909
0.00225848
0.00136638
0.000862008
-0.000103817
0.000834195
0.00131132
-1.78181e-05
-0.000512302
0.000278861
2.7972e-05
0.000257541
0.000167228
8.58003e-05
-5.93102e-05
1.42314e-06
2.45424e-06
5.31624e-06
7.57165e-05
0.00843616
7.2638e-06
7.04707e-06
5.31425e-05
0.0160269
1.09131e-05
-0.000264127
-0.000181376
0.000387729
0.000624376
-7.98067e-06
-6.84849e-05
-0.000256054
-0.000284637
0.00141745
0.00462597
0.00310654
0.000873683
0.000155209
0.00216209
0.00139475
0.00324685
0.000654047
-0.000114133
0.00751445
-6.61947e-05
-0.000179567
-0.0004114
-0.000244264
-2.88738e-05
0.000134315
0.000326015
-0.000327964
0.00138718
-0.000185854
-6.85948e-05
5.42975e-06
0.00606678
-0.00010449
0.00364166
0.00012608
0.000201011
0.000236337
6.10271e-06
-0.000408897
0.000298377
0.000235537
-0.000779948
-0.00012753
2.27341e-06
0.0023297
0.000762375
-0.00158251
-0.00140237
0.00150308
-0.000171202
0.000636068
-0.00110309
7.41112e-05
0.0123481
-5.83236e-05
-0.000111344
0.00209927
-0.000214025
-0.00187648
0.000268991
0.00146961
-1.1504e-05
-0.000135683
-3.23216e-05
-0.00071169
-8.49859e-05
-3.16981e-05
-9.37973e-05
-8.38124e-06
-0.000996232
2.9458e-05
0.00121776
0.0136988
0.0103995
0.000224188
-0.00125372
0.000221493
0.0190072
0.0219952
-0.000710127
-0.000485393
5.84709e-05
0.000169456
0.00293119
0.00239603
-0.00314853
-0.00317083
9.62128e-05
-0.0035151
0.00184051
0.00121776
-0.000774146
-0.000880709
-0.000639157
2.39861e-06
1.76661e-06
-3.92677e-06
0.000617513
0.000877436
0.000791215
0.00187979
0.00232587
-0.00190554
0.000821208
0.000879545
0.00194713
0.000288167
0.00138229
0.00146921
0.00138229
0.00194708
0.000879559
0.00232601
0.000821233
-0.00190544
0.00140751
-0.000531478
0.00187951
0.000791419
0.000877555
0.000617539
-3.8258e-06
-6.61266e-05
0.00167486
-0.00167226
0.00184093
7.35191e-05
2.57844e-06
-0.000639246
-0.000880976
-0.000773986
-0.00183859
0.000463583
-0.0020142
-0.00017048
0.00103902
-0.000291791
0.00325206
-0.000209794
0.00103818
-0.00017132
-0.00201375
0.000463265
-0.000747135
0.00358801
-0.000957122
-0.000201415
0.00190265
0.00190085
0.000205774
-0.00218686
-0.000169887
0.00348311
0.000170056
0.00364174
-0.00471118
0.000126301
0.00539262
-0.00616942
0.0052889
-1.99454e-05
-0.00437631
0.00384003
9.16575e-05
0.00010473
9.56768e-05
5.48488e-05
-6.36003e-05
-0.000324307
-0.000522779
0.00418458
-0.00343321
0.014301
-0.0103643
0.00178549
0.012876
-0.00032747
-0.0134457
0.00978193
-0.00735732
-0.0160005
-0.0138078
-0.0131776
-0.0137144
0.0231366
0.00444257
0.00309538
1.93307e-05
-0.00775062
-0.0152383
-0.00701993
-0.0129395
-0.00701857
-0.0152376
-0.00774992
-0.0137152
0.0231361
-0.0138085
-0.013178
-0.0160006
-0.00735608
0.0097826
-0.0134465
0.0209364
-0.0215655
0.0142998
0.00178469
0.0128751
-0.0103666
0.00642423
0.0149258
0.0103958
0.00760489
0.0181224
0.00626425
0.00388081
0.0118238
-0.0117927
-0.0117929
0.00388056
0.00626396
0.0181223
0.00760307
0.0103941
0.0136929
0.0149269
0.00642695
0.00840129
0.00699628
-0.00406454
0.0190033
0.0214066
0.0219924
0.0175735
0.0177723
0.0197501
0.0177726
-0.0336398
0.000978123
0.000979046
-0.00944476
0.0175726
0.0219906
0.0214077
0.0190067
0.00699578
0.00839982
0.00644931
-0.000615361
-0.000288053
-5.51884e-05
-0.00708224
-0.00913605
-0.00862096
-0.0200496
-0.0241011
0.00462886
-0.0101391
0.0231228
-0.0195148
0.0176838
-0.0153233
0.0135728
-0.0116845
0.0102105
-0.00867301
0.00751146
-0.00631302
0.00543725
-0.00459558
0.00395277
-0.00356319
0.0035846
-0.00387326
0.00391176
-0.00351551
0.00293072
0.000168932
0.00239799
-0.000958225
0.00358905
-0.000746804
0.00121715
-0.000266902
9.15701e-05
0.000104811
9.53718e-05
5.41835e-05
-6.4177e-05
-0.000324897
-0.000523055
0.00418436
-0.00343318
-0.00134538
0.00225041
0.000687659
-0.00840939
-0.0084093
0.00225027
-0.00134568
0.000687657
-0.0037395
-0.0215647
0.0209372
-0.00158519
-0.0168227
0.00155832
-0.00095871
0.00209905
-0.00033521
-0.000403047
-0.00252769
-0.00130515
-0.00252771
0.00155878
0.00444309
0.0102822
0.00309568
-0.00261887
-0.00261935
0.0102822
0.000506673
-0.00656677
0.00711677
0.00711801
-0.000213287
-0.00656743
0.000163019
0.00156023
0.0019283
0.000862116
-0.00929527
0.000861622
0.00022174
0.0137794
-0.00332625
0.00455143
-0.00774803
-0.00947431
-0.0204061
-0.0149455
0.0325037
-0.0179756
0.0230956
0.0230962
0.0005469
0.0186057
-0.00038179
-0.0156378
0.0140771
-0.00020335
-0.0122827
0.0106815
-6.72823e-05
-0.00930147
0.00793273
1.09609e-05
-0.00685176
0.0057579
5.75873e-05
-0.00498754
0.00412563
7.85826e-05
-0.00376338
0.00295849
0.000126947
-0.00351277
-0.000528802
-0.00359526
-0.00359525
0.000288096
-0.000738411
0.000237745
-0.00106181
-4.66166e-05
0.00066394
0.000663935
-0.000787109
-1.50866e-06
0.000812109
0.000812097
-0.00057652
0.000118996
0.00130891
0.00130828
-0.000273641
0.000366203
-0.000657775
-0.000659349
-0.00110455
-0.000596738
-0.000943758
-0.0010375
-0.00150473
-0.000614264
0.00108975
-0.00159892
0.000238008
0.000762492
0.00232971
-0.00134142
-0.000779937
-0.000127569
-0.00135352
7.32073e-06
0.00136305
-0.00213635
3.6637e-06
0.000268869
0.00214554
-0.000192237
2.39294e-05
0.000227807
-9.83785e-06
1.8325e-06
1.87106e-05
3.35501e-05
5.82133e-05
0.000120572
0.000144791
0.000128403
-0.0231466
0.0245996
-0.0253994
0.0223001
-0.019466
0.0177791
-0.0155645
0.013724
-0.0119293
0.0102799
-0.00889342
0.00751262
-0.00649633
0.00539281
-0.00471158
0.00384064
9.56642e-05
-0.00317066
-0.00314979
-0.00218564
0.00254879
0.000216588
0.00254954
-0.00311775
-0.00433646
-0.0043402
0.00503645
0.00493998
0.000221278
-0.00597139
0.000124167
-0.00649605
-4.62494e-05
0.00730736
-0.00724899
-8.32756e-06
0.0084356
-0.00788341
0.00674269
1.80094e-05
0.00606661
-4.01479e-06
-0.0052425
0.00431784
-2.90816e-09
0.00391191
2.75936e-05
-0.00167217
7.37834e-05
-0.000192276
0.00108976
-0.000614169
-0.00150452
-0.00103738
-0.000943478
-0.000597053
-0.00110298
0.000636238
-0.000273772
6.664e-05
-0.00158202
0.000762
6.13786e-06
0.000238084
0.00233005
-0.00159876
0.00214562
0.000268949
-3.48938e-05
-0.000576438
9.96455e-05
9.64935e-05
0.000127685
0.000150442
0.00014739
7.86058e-05
-0.000113709
-0.000349467
0.0023746
-0.00266648
-0.00605709
-0.00449111
-0.00187749
0.00102613
-0.000194181
-0.000327874
-0.00153507
-0.0168211
-0.000958548
0.00209877
-0.000213346
5.51273e-05
0.000253818
-0.0124783
0.0116814
-0.0148878
0.00471665
-0.0354219
0.0046507
-0.0156992
-0.000400447
0.016614
0.0163918
-0.0185587
-0.000320392
0.00141713
0.00462545
-0.000256379
-0.00528044
-0.0097509
-0.0118241
-0.00133866
-0.00248044
-0.00356867
-0.0012798
-0.000463597
-0.00109155
-0.000720151
-0.00050642
-0.000628578
-0.00014902
-0.000535334
1.13475e-05
0.019798
-0.0216215
0.0198147
-0.020405
-0.000364793
0.0214939
-0.000111359
-0.000209305
-0.000403456
-0.000336862
-0.00374109
-7.3328e-06
-0.000581661
0.000163291
-0.00438858
1.97767e-05
0.00707895
-0.00297584
-0.0114473
-0.00137389
0.00162962
0.000425384
-0.000578781
-0.00084466
-0.000780341
-0.000653208
-0.000567372
-0.000530081
-0.000428647
9.77731e-05
0.00109444
0.00109446
0.00112936
-7.99677e-06
-0.000134151
-0.000227799
-0.000348582
-0.000365157
2.38948e-06
-0.000297659
-0.000208393
-0.000142213
-0.00018592
7.31597e-05
7.59671e-05
0.00922758
-0.00994176
0.00843561
-0.0085982
-7.32746e-05
0.0100122
-0.011762
-0.00011415
0.0134166
-0.0157147
-0.000193947
0.0174177
-6.11472e-05
-0.0174018
0.0153308
-3.56126e-05
0.0160276
-0.0185927
-6.72247e-05
-1.53792e-05
-0.000130858
-6.69959e-05
-3.14046e-05
-0.0133492
0.0115124
-5.34749e-06
0.0123474
-0.0143882
-5.92638e-05
5.37682e-05
-7.51877e-06
-6.82266e-05
-0.000157433
0.0143179
0.000615371
-0.00158462
0.00871628
-0.000284522
-0.000540464
0.00310567
0.00866236
0.0126164
0.00405
0.00325416
0.000874042
-0.00026507
0.000624871
0.00038848
7.22864e-06
7.6828e-06
5.3441e-06
2.69058e-06
-8.12249e-05
-4.06348e-05
0.000108798
6.77301e-05
0.00674283
-0.007249
0.00606655
-0.00616967
-4.66454e-05
0.00730739
-8.40184e-06
-1.21746e-05
-3.06421e-05
-1.62766e-05
4.28257e-06
1.08567e-05
-0.00788387
-8.88136e-05
-0.000135775
0.00793227
-6.77207e-05
-0.00930288
-6.73264e-05
0.0106815
-0.00018406
-0.0122833
-0.000203355
0.0140761
-0.00040674
-0.0156373
-0.00038245
0.0186056
-0.00078729
-0.0187308
-0.0010185
0.0281174
0.0182057
-0.00391537
0.000861774
0.000861892
0.0281179
-0.00101822
-0.0187305
-0.00391656
-0.0179753
0.00455138
0.0325022
-0.00241136
-0.0149459
-0.0204066
-0.00947473
-0.0241025
-0.00774842
-0.00297709
0.00707856
-0.00438898
0.000861414
0.00192837
-0.00929542
0.000861569
-0.00153522
-0.000581106
-0.00091763
-0.000359534
-0.00015684
-0.000246379
0.000161924
-0.000477378
0.000547359
-0.0181296
0.0175828
-0.0151743
0.0134879
0.0134875
-8.34658e-07
-0.0118625
-2.01015e-05
0.0101361
-1.17532e-05
-0.00889699
7.47013e-05
0.00741729
-1.51389e-05
-0.00651557
0.000155385
0.00528634
-3.20616e-05
-0.00477934
0.000289911
0.00367637
-9.45366e-05
-0.00375158
0.000619363
0.00233484
0.000292402
0.00233468
-0.000528829
-0.00351299
0.000126999
0.00295843
0.000123128
-0.00376323
7.8961e-05
0.00412556
6.73892e-05
-0.00498763
5.77998e-05
0.00575761
6.30387e-06
-0.00685177
1.15634e-05
7.48483e-05
0.0074174
-3.21933e-05
-0.006515
0.00528617
-0.00477914
0.00367629
0.000236944
-0.00375151
0.00061904
-0.000169729
-0.00010397
0.000289947
-0.000215499
-0.000206536
-0.000237024
-0.000286006
-0.000255581
5.28385e-05
0.000487221
0.000487052
-0.0114478
-0.0118243
-0.00133859
5.17192e-05
-0.0181285
-0.00103868
0.0175829
8.62382e-05
-0.0151743
-0.000260612
-0.000139785
-0.000481037
8.60195e-05
-0.000710816
-0.000430902
-1.00934e-06
-0.011862
0.0101367
-0.00889678
-1.19696e-05
-0.000362096
-0.000134348
-0.00028191
-1.52262e-05
-0.000197089
-3.21287e-05
9.24558e-05
-0.00011973
-9.45988e-05
0.000184438
-0.00131741
0.000237691
-0.000738321
0.00137544
0.000552916
0.000552822
0.00137546
0.00064183
-0.000104542
0.00115597
-0.0023126
-0.000158011
5.97837e-05
0.00164848
0.000147408
-0.00110747
0.000603343
0.0015446
0.00111171
0.00133543
0.000796454
-0.000175916
-0.000191602
-0.000178178
-5.92892e-05
0.00109598
-0.000178287
0.00064179
0.00115602
-0.000104587
-0.000448958
-0.000157875
0.00164845
5.97228e-05
-0.000244996
3.66514e-06
-0.00213647
0.00136305
7.32576e-06
-0.00135352
-0.000127549
6.13042e-06
-0.00019147
-0.000145979
0.000411294
-0.000449033
-0.000320374
-1.43861e-05
0.000121307
6.19173e-06
2.22321e-06
7.42593e-06
-1.44372e-05
0.000411347
-0.00106178
-0.000320075
-0.000169845
-8.66181e-06
8.04227e-06
1.58133e-05
1.74589e-05
2.1944e-05
5.5218e-05
6.56171e-06
-0.0010373
6.69255e-06
0.000144722
-0.000787096
0.023123
0.000129066
0.0197992
-6.7334e-05
0.0198155
-6.16638e-05
0.0174188
-0.000195276
-0.0157149
0.0137254
4.58998e-05
0.00953964
0.00953351
0.000322673
-0.0106848
0.0126929
0.0128024
0.000216484
-0.0138533
-0.000138072
-0.0155667
0.0177804
-0.0204064
0.021493
-0.000364574
-0.0194668
-0.000318755
0.0163909
0.0166152
-0.00040087
-0.0185579
0.0223018
-0.0254001
-0.000110918
-0.0216224
0.0245998
-0.0231472
0.0143176
0.000252966
-0.0124788
-0.000463505
0.0116818
-0.000781195
-0.014887
-0.0106629
0.00471707
0.00465148
-0.0354228
0.0126173
0.0120987
0.00191046
-0.000238924
-0.0117552
-0.000563698
0.0119625
0.011964
-0.000696429
-0.0131588
0.00021675
0.0128007
0.0126941
-0.0138537
-0.000140612
-0.0106845
0.000323312
0.00953277
0.00954008
4.43489e-05
-0.00808396
0.000285595
0.00693194
0.00699355
0.000106862
0.000257937
0.000167613
8.58028e-05
-5.94216e-05
1.31317e-06
5.00199e-05
0.000163885
0.000143274
5.33366e-05
0.00487488
-0.00524243
0.0043182
-0.00437652
-1.97074e-05
0.00528892
-4.39567e-06
-3.2168e-06
2.93753e-06
-2.92531e-07
-8.88803e-06
-3.14487e-05
-0.00190148
-0.000996195
0.000447028
0.000885163
0.000441477
4.45844e-05
1.07478e-05
1.34925e-06
2.93288e-05
-5.29681e-05
-6.62414e-05
-9.09296e-05
-0.000114312
-0.000142674
-0.000181826
0.000279601
0.00139093
0.00216116
0.00131033
0.000659373
2.85245e-05
-0.000104058
-1.837e-05
-0.0103902
-0.00753281
0.000357678
0.00691309
0.00691445
-0.000397393
-0.00577787
0.000337667
0.00502126
0.00502217
-0.00030935
-0.00592727
0.000221845
0.00493983
0.00503658
-0.00597192
0.000123306
-7.44082e-05
0.000329616
0.00083343
0.000526579
0.000134209
-0.000129067
-0.000123426
-0.00433695
0.000169787
0.00348361
0.00364178
-0.00434
0.000126014
-0.000179894
-2.95175e-05
0.000290286
5.8484e-05
-0.000245878
-0.000411824
-0.000394
-0.00071111
-0.000485561
-0.00113064
-0.00148042
-0.00131783
-0.00114452
-0.00137136
-0.00147272
-0.00113201
0.00150313
-0.00141985
0.000573067
0.000125377
-0.000104317
-0.000169911
-4.51454e-05
2.47097e-06
1.86634e-05
-0.00400334
-7.32702e-05
7.42387e-06
1.81172e-05
-0.00565112
-9.3396e-05
-0.000112968
0.000155645
-0.000112921
-0.000135837
-0.000155292
5.82676e-05
0.000120738
-0.000407844
0.0176843
4.72993e-05
0.0160286
-3.5838e-05
0.0153305
-3.20363e-05
0.0134168
-0.000115017
-0.0117621
0.0102811
0.000108029
0.00699324
0.00693282
0.000285326
-0.00808318
-0.00795791
-0.000397496
-0.00577639
-0.000104498
0.00136482
0.00225627
0.00422294
0.000153418
0.000153649
0.00191052
-0.000238998
-0.015701
-0.0117534
-0.000266467
5.50818e-05
-1.54622e-05
-0.000209167
-0.000130958
-0.000141769
-2.10315e-05
-0.000139704
-0.000260901
-0.000155317
-1.97534e-05
-6.4013e-06
-7.26365e-05
-3.41301e-05
-1.43348e-05
-5.59781e-06
1.40632e-06
1.61502e-05
0.000144346
0.000227842
-9.8914e-06
1.9211e-06
1.86993e-05
3.35438e-05
-6.7824e-05
0.0102098
-8.41636e-05
0.00922818
1.06453e-05
-0.00994174
-1.61155e-05
0.0100119
-7.31135e-05
-0.0085982
0.00751366
-0.00889318
-0.00011454
7.53601e-05
7.31591e-05
-0.000348882
-0.000506423
-0.000718603
-0.000253058
-0.000284371
-0.000235741
-0.000205235
-0.000228199
-0.000134262
-0.000214389
-0.000204446
-7.63538e-06
0.00112956
0.000886102
0.000441957
-0.00356326
-7.34782e-05
0.0035843
-3.16177e-05
0.0016747
2.93562e-05
2.39637e-05
2.90426e-06
-3.18732e-06
-1.20811e-05
-3.06207e-05
-6.68012e-05
-2.07689e-05
-6.41299e-06
-6.24846e-06
-0.0107873
0.0115122
-0.0133499
0.0123486
-0.0116845
-5.89437e-05
0.0135729
-0.000184957
-0.0153232
-0.000148013
-0.000534804
-0.0195149
-0.00356785
-0.0101392
0.00871744
-0.00862243
-0.0200481
0.00462908
-0.00974897
-0.00528025
-0.00913636
-0.00708427
0.000613836
-5.64344e-05
-0.00027871
-0.000615709
-0.000539576
0.00645195
0.00462534
-0.000255728
-0.000157624
-0.00128122
-0.00247835
-0.000462993
-0.0010952
-0.000296898
-0.000630669
3.10663e-06
7.39808e-05
5.26011e-05
-0.0143876
-0.0174028
1.08069e-05
-0.0185923
-6.80977e-05
-6.82465e-06
7.42636e-06
8.12692e-06
-0.000207545
-0.00036691
-0.000141666
-8.87646e-05
-0.00631328
0.00543688
-9.37623e-05
0.00487451
1.86333e-05
-0.0040033
0.00395273
0.000122825
-0.00459583
6.69826e-05
0.000143085
0.00010892
-0.000187306
6.72575e-05
-0.0056513
-8.09953e-05
-4.26927e-05
4.9759e-05