/*--------------------------------*- C++ -*----------------------------------*\
| =========                 |                                                 |
| \\      /  F ield         | OpenFOAM: The Open Source CFD Toolbox           |
|  \\    /   O peration     | Version:  2306                                  |
|   \\  /    A nd           | Website:  www.openfoam.com                      |
|    \\/     M anipulation  |                                                 |
\*---------------------------------------------------------------------------*/
FoamFile
{
    version     2.0;
    format      ascii;
    arch        "LSB;label=32;scalar=64";
    class       volVectorField;
    location    "0.5";
    object      flux;
}
// * * * * * * * * * * * * * * * * * * * * * * * * * * * * * * * * * * * * * //

dimensions      [0 1 -1 1 0 0 0];

internalField   nonuniform List<vector> 
2658
(
(9.4158e-07 9.18546e-07 -7.29617e-06)
(1.40836e-06 5.48373e-07 -6.7949e-06)
(4.35468e-07 1.57625e-07 -3.6222e-06)
(1.93228e-08 1.20072e-09 -3.1857e-06)
(-1.28797e-06 -1.27025e-06 -4.39806e-06)
(-1.08051e-06 1.53373e-06 -4.47107e-06)
(9.03465e-07 -1.05988e-06 -3.28282e-06)
(9.01328e-07 8.94951e-07 -3.19971e-06)
(-1.59732e-09 2.13582e-08 -3.18341e-06)
(1.52823e-06 -1.09816e-06 -4.46183e-06)
(-1.19332e-06 2.9524e-07 -5.30328e-06)
(-9.9812e-07 -3.40308e-06 -4.78507e-06)
(7.84344e-07 2.27349e-06 -6.91891e-06)
(8.70221e-07 2.30314e-06 -6.6504e-06)
(6.4749e-07 1.90682e-06 -6.63732e-06)
(-1.41028e-08 1.93761e-06 -6.8021e-06)
(-2.46211e-08 2.09036e-06 -6.79567e-06)
(-3.76959e-08 1.91346e-06 -6.78978e-06)
(-6.96399e-07 1.94967e-06 -6.61468e-06)
(-9.3903e-07 2.27625e-06 -6.55655e-06)
(-9.49001e-07 2.21139e-06 -6.79705e-06)
(-2.19909e-06 1.97492e-06 -6.12884e-06)
(-2.52731e-06 6.77033e-07 -6.90775e-06)
(1.79993e-06 -3.63056e-07 -4.85141e-06)
(-7.198e-07 6.43567e-07 -7.79484e-06)
(-1.04476e-06 2.08491e-06 -6.8058e-06)
(-2.23729e-06 -4.25799e-07 -6.22216e-06)
(-2.82054e-07 1.40742e-07 -7.00317e-06)
(-1.63573e-06 1.69917e-06 -7.32841e-06)
(-1.82426e-06 -9.01278e-11 -6.29056e-06)
(-1.63571e-06 -1.6992e-06 -7.32834e-06)
(-2.23734e-06 4.25813e-07 -6.22215e-06)
(-1.0448e-06 -2.08503e-06 -6.80572e-06)
(-2.52742e-06 -6.77056e-07 -6.90762e-06)
(-7.19734e-07 -6.43556e-07 -7.79479e-06)
(1.79991e-06 3.63093e-07 -4.85128e-06)
(-7.18175e-07 -8.63279e-10 -5.70501e-06)
(4.33271e-07 1.82106e-07 -8.97176e-06)
(-2.19879e-06 -1.97552e-06 -6.12875e-06)
(-9.49266e-07 -2.2115e-06 -6.79718e-06)
(-9.39036e-07 -2.27641e-06 -6.55665e-06)
(-6.96361e-07 -1.94973e-06 -6.61467e-06)
(-3.78436e-08 -1.91332e-06 -6.7897e-06)
(7.27862e-08 8.88819e-07 -9.05468e-06)
(-9.3008e-07 -1.25775e-08 -5.0959e-06)
(8.72348e-07 4.37422e-08 -5.04563e-06)
(-1.19329e-06 -2.95256e-07 -5.30329e-06)
(-5.58376e-08 9.27646e-07 -9.05802e-06)
(-1.43199e-08 -1.93796e-06 -6.80219e-06)
(6.47482e-07 -1.90684e-06 -6.63734e-06)
(8.70214e-07 -2.303e-06 -6.65031e-06)
(7.84283e-07 -2.27353e-06 -6.919e-06)
(2.09202e-06 -2.06873e-06 -6.21424e-06)
(-4.09405e-07 4.01034e-07 -9.36053e-06)
(2.29164e-06 -7.77631e-07 -6.92575e-06)
(1.91462e-06 -6.58481e-07 -6.64124e-06)
(-9.38188e-07 5.42777e-08 -9.05515e-06)
(-2.76007e-08 -8.7986e-07 -5.0645e-06)
(-3.14306e-06 -1.44542e-11 -4.93242e-06)
(1.91873e-06 1.60868e-08 -6.7954e-06)
(-9.38122e-07 -5.42412e-08 -9.05524e-06)
(1.91466e-06 6.58479e-07 -6.6413e-06)
(2.29162e-06 7.7769e-07 -6.92577e-06)
(-4.09325e-07 -4.01082e-07 -9.36052e-06)
(2.87285e-07 2.87199e-07 -5.43444e-06)
(-3.40213e-06 -9.72645e-07 -4.7943e-06)
(2.77602e-07 -1.19235e-06 -5.29173e-06)
(-1.05163e-07 -7.22443e-08 -4.33991e-06)
(-8.14059e-07 -1.70052e-06 -4.40567e-06)
(-8.14149e-07 1.70053e-06 -4.40557e-06)
(1.60513e-08 1.25673e-11 -3.20853e-06)
(6.39644e-07 1.15389e-06 -3.19875e-06)
(-9.33898e-08 -2.42549e-08 -2.18284e-06)
(-5.51699e-07 7.48167e-07 -2.23321e-06)
(3.98469e-08 6.04347e-09 -1.50424e-06)
(-5.88178e-07 -5.77007e-07 -2.2188e-06)
(7.41621e-07 -5.64874e-07 -2.2271e-06)
(4.61331e-09 4.30122e-08 -1.50194e-06)
(-4.90299e-07 4.11918e-07 -1.49629e-06)
(5.37492e-07 2.63927e-07 -1.45756e-06)
(-8.59026e-07 -3.81715e-07 -2.22638e-06)
(-3.14153e-08 -8.69142e-08 -2.18159e-06)
(1.15854e-06 6.08634e-07 -3.18235e-06)
(-1.06258e-06 9.30453e-07 -3.29274e-06)
(-9.53696e-09 -4.45828e-09 -3.02091e-06)
(-6.039e-09 -2.82838e-09 -1.42694e-06)
(1.31379e-09 2.97287e-09 -5.83393e-07)
(1.41278e-09 2.18353e-09 -2.056e-07)
(5.94386e-10 9.20854e-10 -6.29001e-08)
(1.81416e-10 3.09745e-10 -1.68537e-08)
(4.60798e-11 9.37147e-11 -3.99092e-09)
(-1.94996e-11 -2.66674e-11 -1.04089e-09)
(4.81354e-12 5.42174e-12 -4.85113e-10)
(-1.17688e-10 6.89769e-11 -4.42582e-10)
(5.87895e-11 -2.15807e-11 -3.60084e-10)
(-2.41045e-11 -1.42078e-10 -5.53765e-10)
(-7.41581e-11 -4.85432e-12 -3.52156e-10)
(-6.92429e-13 -6.62443e-11 -4.85648e-10)
(7.05403e-11 -7.16039e-12 -3.49911e-10)
(-6.15492e-11 -1.89777e-11 -3.46463e-10)
(2.91281e-11 -6.8379e-11 -4.75328e-10)
(7.96972e-11 -1.41197e-11 -3.48563e-10)
(1.08702e-10 -1.17999e-10 -5.01806e-10)
(4.39675e-11 -2.96407e-11 -4.08751e-10)
(4.87438e-11 -3.20035e-11 -3.51939e-10)
(-1.30498e-10 6.70914e-11 -4.96915e-10)
(-1.25108e-11 -2.56116e-11 -3.94366e-10)
(-6.10857e-12 -2.3895e-11 -9.89236e-10)
(-1.45697e-11 1.15993e-11 -3.8742e-10)
(3.18813e-11 -6.5924e-11 -4.43833e-10)
(6.41789e-11 1.95774e-11 -3.9765e-10)
(2.27107e-11 -2.65188e-11 -3.32891e-10)
(4.70815e-11 3.55564e-15 -4.24122e-10)
(2.2699e-11 2.65316e-11 -3.32881e-10)
(6.41701e-11 -1.95957e-11 -3.97662e-10)
(3.18853e-11 6.59215e-11 -4.43911e-10)
(4.8784e-11 3.19898e-11 -3.52005e-10)
(-1.30528e-10 -6.71459e-11 -4.96932e-10)
(1.08745e-10 1.17975e-10 -5.01817e-10)
(4.40208e-11 2.96279e-11 -4.08757e-10)
(7.96683e-11 1.40582e-11 -3.48437e-10)
(2.90704e-11 6.83798e-11 -4.75232e-10)
(-6.15592e-11 1.89799e-11 -3.4646e-10)
(7.05373e-11 7.14972e-12 -3.49879e-10)
(-1.47518e-10 -5.52362e-11 -4.64234e-10)
(1.38044e-10 -5.17395e-11 -4.65976e-10)
(-1.17741e-10 -6.90178e-11 -4.42575e-10)
(-2.41378e-11 1.42099e-10 -5.53799e-10)
(-7.41352e-11 4.89513e-12 -3.52154e-10)
(5.87562e-11 2.15909e-11 -3.60092e-10)
(-3.30357e-11 6.96464e-11 -4.96399e-10)
(-8.43251e-11 1.1575e-11 -3.6268e-10)
(-4.63488e-11 3.13963e-11 -4.32397e-10)
(-4.4615e-11 3.93166e-11 -3.64164e-10)
(-3.64711e-11 6.62625e-11 -4.70243e-10)
(-8.03803e-12 -3.434e-11 -4.10499e-10)
(-3.14195e-11 1.27518e-11 -4.23664e-10)
(-1.99402e-10 1.97988e-11 -6.52556e-10)
(8.83871e-11 -1.03223e-10 -4.90701e-10)
(8.83715e-11 1.03296e-10 -4.90723e-10)
(-3.14352e-11 -1.27176e-11 -4.23616e-10)
(-8.08548e-12 3.43518e-11 -4.10491e-10)
(1.59167e-11 -1.72035e-11 -4.02024e-10)
(-3.72536e-11 -1.65541e-11 -3.90078e-10)
(-4.05908e-11 -1.54073e-13 -4.80327e-10)
(-3.71867e-11 1.6535e-11 -3.89932e-10)
(1.35699e-12 6.01836e-14 -5.04185e-10)
(-1.04934e-11 7.57514e-14 -6.18364e-10)
(-7.93837e-11 -3.709e-11 -3.59739e-10)
(-8.23674e-11 3.65192e-11 -3.6136e-10)
(-6.48151e-11 1.60748e-13 -3.13824e-10)
(-8.16545e-11 3.55449e-12 -4.90412e-10)
(-8.26886e-11 2.52441e-11 -6.05248e-10)
(-8.39549e-11 -2.98285e-11 -2.96089e-10)
(-8.60887e-11 1.05916e-10 -4.61297e-10)
(-1.36757e-10 2.25064e-11 -4.63978e-10)
(-1.11822e-10 1.03097e-10 -4.29619e-10)
(-5.25596e-11 1.2655e-10 -4.44903e-10)
(-6.70559e-11 1.37161e-10 -3.88432e-10)
(-5.37747e-11 1.01794e-10 -4.45699e-10)
(4.42961e-12 1.03095e-10 -4.5376e-10)
(-1.99339e-12 1.27382e-10 -3.87029e-10)
(-1.24757e-11 1.05161e-10 -4.52815e-10)
(4.10815e-11 9.907e-11 -4.31044e-10)
(6.02777e-11 1.36131e-10 -3.71297e-10)
(4.42727e-11 1.26407e-10 -4.24619e-10)
(9.96287e-11 1.04079e-10 -4.02046e-10)
(1.51635e-10 3.28533e-11 -4.64628e-10)
(-2.65545e-11 3.25204e-11 -9.05362e-10)
(2.88807e-10 1.19973e-10 -1.2629e-09)
(-9.56533e-10 -6.06073e-10 -3.14229e-09)
(2.203e-09 1.5537e-09 -7.05411e-09)
(-4.20702e-09 -2.90041e-09 -1.46869e-08)
(9.28137e-09 6.4011e-09 -2.96698e-08)
(-1.67495e-08 -1.20886e-08 -5.80313e-08)
(3.42885e-08 2.33048e-08 -1.09583e-07)
(-5.85313e-08 -4.34406e-08 -2.00037e-07)
(1.10557e-07 7.42912e-08 -3.52458e-07)
(-1.77712e-07 -1.34553e-07 -5.98135e-07)
(3.09495e-07 2.05195e-07 -9.80102e-07)
(-4.64512e-07 -3.58594e-07 -1.53953e-06)
(7.50163e-07 4.87308e-07 -2.33361e-06)
(-1.03876e-06 -8.25025e-07 -3.38881e-06)
(1.59796e-06 9.81062e-07 -4.64021e-06)
(-1.57798e-06 9.80279e-07 -4.46881e-06)
(1.67951e-06 8.27068e-07 -4.37703e-06)
(-1.73368e-06 7.87252e-07 -4.42569e-06)
(1.52818e-06 1.0982e-06 -4.46175e-06)
(-1.28804e-06 1.27021e-06 -4.398e-06)
(1.9315e-08 -1.21095e-09 -3.18564e-06)
(-1.08045e-06 -1.53376e-06 -4.47111e-06)
(2.77523e-07 1.19236e-06 -5.29164e-06)
(-3.40209e-06 9.72585e-07 -4.79432e-06)
(2.87264e-07 -2.87189e-07 -5.43444e-06)
(-9.98165e-07 3.40306e-06 -4.78508e-06)
(4.5386e-07 -4.56009e-07 -7.62569e-06)
(-9.54479e-09 4.43919e-09 -3.02089e-06)
(-6.03489e-09 2.81573e-09 -1.42693e-06)
(1.31132e-09 -2.97428e-09 -5.83387e-07)
(1.41201e-09 -2.18513e-09 -2.05596e-07)
(5.94951e-10 -9.22021e-10 -6.28984e-08)
(1.81654e-10 -3.0962e-10 -1.6853e-08)
(4.61116e-11 -9.37364e-11 -3.99075e-09)
(-1.95179e-11 2.66657e-11 -1.04088e-09)
(4.79117e-12 -5.43748e-12 -4.85129e-10)
(3.9126e-12 -3.46545e-12 -3.99924e-10)
(-4.67013e-11 -3.81121e-11 -4.60561e-10)
(-1.91704e-11 3.87032e-11 -1.02439e-09)
(4.32118e-11 -4.32591e-11 -4.6719e-10)
(4.32161e-11 4.32555e-11 -4.67209e-10)
(-4.67107e-11 3.81513e-11 -4.60581e-10)
(3.92822e-12 3.43087e-12 -3.99927e-10)
(-1.91135e-11 -3.87449e-11 -1.02439e-09)
(2.233e-12 -9.5072e-12 -4.13097e-10)
(1.38002e-10 5.17198e-11 -4.65982e-10)
(-1.47537e-10 5.5211e-11 -4.64256e-10)
(1.21333e-11 -1.42734e-10 -5.43959e-10)
(1.07634e-10 6.18438e-11 -4.31058e-10)
(-4.59035e-12 9.41088e-12 -4.70321e-10)
(-1.06811e-11 4.72158e-12 -3.88998e-10)
(-1.43719e-11 -1.35359e-11 -4.12917e-10)
(-3.47706e-12 4.88023e-12 -4.96852e-10)
(-7.49783e-12 1.00841e-11 -1.07596e-09)
(9.74473e-12 1.93953e-11 -1.03396e-09)
(1.312e-11 -7.12836e-15 -1.15943e-09)
(9.74458e-12 -1.94197e-11 -1.0339e-09)
(-4.62055e-12 -9.46441e-12 -4.70324e-10)
(-1.24856e-11 2.56068e-11 -3.94362e-10)
(-6.46976e-11 -5.78219e-11 -4.50943e-10)
(-6.06481e-12 2.39374e-11 -9.89196e-10)
(1.17525e-11 -5.58618e-11 -4.53497e-10)
(1.17689e-11 5.59372e-11 -4.53509e-10)
(-6.47136e-11 5.78588e-11 -4.50957e-10)
(-1.53176e-12 2.55822e-14 -5.23523e-10)
(3.77346e-11 -3.68991e-11 -4.49276e-10)
(-5.74033e-11 -4.68387e-11 -4.64727e-10)
(-5.74628e-11 4.69015e-11 -4.64738e-10)
(-9.74945e-13 -3.80834e-11 -1.00418e-09)
(3.77882e-11 3.69735e-11 -4.49288e-10)
(-1.36753e-12 -8.07262e-12 -4.34723e-10)
(-5.63152e-12 1.86674e-14 -3.2917e-10)
(-7.3345e-12 -1.94528e-11 -3.26031e-10)
(-7.62702e-12 -9.66801e-12 -3.00372e-10)
(3.56385e-11 3.45594e-11 -3.64282e-10)
(-6.11201e-12 -5.88227e-12 -3.2193e-10)
(1.37501e-12 1.20759e-14 -3.38632e-10)
(-4.8317e-11 1.13562e-14 -6.41546e-10)
(-2.7375e-11 -9.16541e-15 -1.03387e-09)
(-3.10052e-11 -8.97555e-11 -7.10032e-10)
(9.05169e-11 6.18887e-11 -7.5334e-10)
(5.98125e-11 1.22294e-10 -4.25911e-10)
(1.09329e-10 -3.15412e-11 -3.26253e-10)
(7.84332e-11 9.06512e-11 -4.24138e-10)
(-3.12546e-10 -1.64921e-10 -6.97705e-10)
(4.17952e-10 4.38177e-10 -1.82016e-09)
(-1.14116e-09 -7.49648e-10 -3.55359e-09)
(-1.14111e-09 7.49549e-10 -3.5536e-09)
(2.11858e-11 8.9716e-11 -3.23254e-09)
(-1.95672e-09 1.51137e-09 -7.43055e-09)
(6.88253e-11 -4.38482e-11 -6.60804e-09)
(4.0375e-09 -3.56179e-09 -1.53851e-08)
(-8.03578e-09 6.56831e-09 -3.10747e-08)
(1.12805e-10 -3.81035e-10 -2.68902e-08)
(1.59149e-08 -1.37955e-08 -6.02626e-08)
(-2.98166e-08 2.49678e-08 -1.14151e-07)
(-1.48723e-11 -1.56097e-09 -9.61527e-08)
(5.4997e-08 -4.718e-08 -2.073e-07)
(-9.68352e-08 8.23572e-08 -3.66063e-07)
(-1.06867e-09 -5.26499e-09 -2.9926e-07)
(1.65496e-07 -1.40638e-07 -6.19797e-07)
(-2.70745e-07 2.34159e-07 -1.01492e-06)
(-5.41769e-09 -1.75826e-08 -8.03595e-07)
(4.32552e-07 -3.61111e-07 -1.59593e-06)
(-6.42152e-07 5.71425e-07 -2.41244e-06)
(-1.51385e-08 -6.13118e-08 -1.84497e-06)
(1.00186e-06 -7.90959e-07 -3.49192e-06)
(-1.25103e-06 1.1895e-06 -4.96401e-06)
(-7.66824e-08 -2.29913e-07 -3.76371e-06)
(2.34231e-06 -1.5962e-06 -6.2973e-06)
(4.0042e-07 -8.07244e-07 -4.61605e-06)
(3.0339e-06 -1.87889e-06 -6.2167e-06)
(3.03388e-06 1.87892e-06 -6.21666e-06)
(-2.8199e-07 -1.40679e-07 -7.00304e-06)
(7.88159e-07 -5.91977e-07 -7.32113e-06)
(-2.40688e-07 1.00851e-06 -6.20648e-06)
(1.03857e-06 8.98421e-07 -5.6952e-06)
(7.24234e-08 -2.92752e-11 -8.48279e-06)
(-6.16827e-07 -6.16083e-07 -5.38747e-06)
(-6.16812e-07 6.16059e-07 -5.3875e-06)
(7.11363e-07 6.58332e-07 -5.43733e-06)
(-2.34933e-08 -2.08454e-11 -8.47602e-06)
(-8.06715e-07 -7.83318e-07 -5.50108e-06)
(-8.06695e-07 7.83298e-07 -5.5011e-06)
(2.25884e-07 3.29759e-07 -5.29414e-06)
(-2.81835e-07 -1.75213e-11 -8.46267e-06)
(-1.23279e-06 -2.12483e-06 -6.89599e-06)
(-1.23281e-06 2.1248e-06 -6.89596e-06)
(5.0447e-07 -1.42672e-06 -8.70077e-06)
(1.87256e-06 2.14841e-11 -1.25915e-05)
(5.04482e-07 1.4267e-06 -8.70079e-06)
(7.62574e-07 -1.11912e-06 -8.85425e-06)
(2.05549e-06 7.09106e-07 -1.24552e-05)
(9.02166e-07 1.63515e-06 -8.8564e-06)
(1.18873e-06 1.17871e-06 -1.03236e-05)
(1.35355e-06 1.34415e-06 -8.32563e-06)
(-2.15721e-06 -2.14548e-06 -8.10624e-06)
(-1.24609e-06 1.44635e-06 -6.61553e-06)
(1.08376e-06 1.76015e-07 -7.63923e-06)
(8.3154e-07 1.21912e-07 -9.65864e-06)
(-8.80237e-09 2.19805e-09 -8.66983e-06)
(2.25899e-07 -3.29793e-07 -5.29413e-06)
(-1.28984e-07 -1.20725e-07 -5.09479e-06)
(-3.7116e-07 -3.72441e-07 -8.43984e-06)
(1.45504e-06 -1.22745e-06 -6.65465e-06)
(-1.127e-06 7.55676e-07 -8.85742e-06)
(7.12264e-07 2.0241e-06 -1.24561e-05)
(1.64445e-06 8.90766e-07 -8.86188e-06)
(9.43141e-07 9.3705e-07 -9.77813e-06)
(-5.16719e-07 -5.14429e-07 -9.03999e-06)
(-6.83754e-07 9.55513e-12 -9.12753e-06)
(-5.16709e-07 5.14452e-07 -9.0399e-06)
(-3.71214e-07 3.72448e-07 -8.4398e-06)
(-1.24609e-06 -1.44637e-06 -6.61552e-06)
(-2.15725e-06 2.14549e-06 -8.10629e-06)
(9.02164e-07 -1.63526e-06 -8.85612e-06)
(2.05551e-06 -7.09154e-07 -1.24552e-05)
(7.62605e-07 1.11913e-06 -8.85416e-06)
(1.08375e-06 -1.76045e-07 -7.63933e-06)
(8.31537e-07 -1.21924e-07 -9.65862e-06)
(9.43191e-07 -9.36894e-07 -9.77798e-06)
(1.64423e-06 -8.90837e-07 -8.86222e-06)
(7.12085e-07 -2.02407e-06 -1.24558e-05)
(-1.12705e-06 -7.55696e-07 -8.85752e-06)
(1.45497e-06 1.22743e-06 -6.65462e-06)
(1.7291e-07 -1.08678e-06 -7.63336e-06)
(1.4176e-06 -5.38293e-07 -8.75627e-06)
(-2.76588e-08 -1.86708e-06 -1.26007e-05)
(-1.45914e-06 -4.88637e-07 -8.70897e-06)
(2.13033e-06 1.14945e-06 -6.92646e-06)
(-2.24477e-08 2.82702e-07 -8.47347e-06)
(-3.58871e-07 -2.3717e-07 -5.27986e-06)
(-2.16735e-06 1.24335e-06 -6.90061e-06)
(-2.27884e-08 -2.79083e-07 -7.13395e-06)
(-2.50543e-07 -3.53883e-07 -7.27482e-06)
(2.03067e-08 -4.92654e-08 -3.17367e-06)
(1.29684e-08 -3.11939e-08 -1.50753e-06)
(4.51165e-09 -1.7995e-08 -6.17181e-07)
(1.3856e-09 -7.80501e-09 -2.17384e-07)
(3.70736e-10 -2.7442e-09 -6.63788e-08)
(8.04095e-11 -8.25147e-10 -1.77238e-08)
(1.15763e-11 -2.24777e-10 -4.17286e-09)
(-5.47674e-11 -1.48984e-10 -3.70949e-09)
(1.03546e-09 -5.42801e-10 -3.13078e-09)
(-1.15643e-09 -4.61017e-10 -3.14042e-09)
(1.11412e-09 -4.01238e-10 -3.14027e-09)
(-1.09269e-09 -6.87011e-10 -3.19743e-09)
(2.04832e-09 1.80253e-09 -6.80302e-09)
(-4.77849e-09 -3.31235e-09 -1.4445e-08)
(8.87917e-09 7.44439e-09 -2.84446e-08)
(-1.86278e-08 -1.37486e-08 -5.67292e-08)
(3.33326e-08 2.71193e-08 -1.04902e-07)
(-6.38157e-08 -4.94405e-08 -1.94872e-07)
(1.08793e-07 8.64186e-08 -3.3715e-07)
(-1.90491e-07 -1.53859e-07 -5.81622e-07)
(3.07087e-07 2.38505e-07 -9.37073e-07)
(-4.90258e-07 -4.11917e-07 -1.49628e-06)
(7.41579e-07 5.649e-07 -2.22703e-06)
(-1.06254e-06 -9.30468e-07 -3.29275e-06)
(-1.58496e-09 -2.14022e-08 -3.18334e-06)
(9.01329e-07 -8.94916e-07 -3.19971e-06)
(9.03344e-07 1.05996e-06 -3.28278e-06)
(6.39761e-07 -1.15392e-06 -3.19883e-06)
(-4.03479e-07 8.42414e-07 -2.22369e-06)
(4.30232e-08 -6.57094e-12 -1.52699e-06)
(-4.03404e-07 -8.42417e-07 -2.22372e-06)
(2.81744e-07 5.34796e-07 -1.46532e-06)
(3.96867e-07 -4.88212e-07 -1.49359e-06)
(3.96231e-07 3.92907e-07 -1.46284e-06)
(-2.42827e-07 -2.37484e-07 -9.22859e-07)
(-2.32723e-07 3.10928e-07 -9.40308e-07)
(2.07259e-08 5.93506e-09 -6.03927e-07)
(1.48518e-07 1.47334e-07 -5.69969e-07)
(5.19598e-09 2.26377e-08 -6.02519e-07)
(3.07127e-07 -2.38488e-07 -9.37117e-07)
(-1.30243e-08 -4.3405e-08 -9.56712e-07)
(-3.56794e-07 -1.59516e-07 -9.35374e-07)
(3.43526e-07 -1.81545e-07 -9.28074e-07)
(-1.5124e-09 2.34185e-08 -6.1133e-07)
(-2.09715e-07 1.12632e-07 -5.72021e-07)
(1.93108e-07 1.23216e-07 -5.70763e-07)
(-3.23607e-07 -2.02988e-07 -9.32666e-07)
(1.26903e-09 -4.5958e-08 -9.54528e-07)
(-5.40436e-07 3.02225e-07 -1.469e-06)
(-3.16708e-09 4.28629e-08 -1.51934e-06)
(8.28321e-07 -4.26434e-07 -2.20382e-06)
(-1.16602e-06 6.7725e-07 -3.21626e-06)
(-5.70653e-09 1.53664e-08 -3.1993e-06)
(-1.73369e-06 -7.87247e-07 -4.4257e-06)
(-7.70872e-08 -9.60199e-08 -4.34531e-06)
(8.72362e-07 -4.37355e-08 -5.04568e-06)
(-5.58357e-08 -9.27654e-07 -9.05808e-06)
(1.72952e-07 1.08677e-06 -7.63342e-06)
(-2.16737e-06 -1.24339e-06 -6.90057e-06)
(-3.58845e-07 2.37131e-07 -5.27983e-06)
(5.52804e-08 6.52673e-08 -7.24807e-06)
(-4.08083e-08 -3.33282e-08 -4.57689e-06)
(-1.30102e-08 -8.16689e-12 -3.30219e-06)
(-1.1267e-08 -2.3944e-08 -3.12522e-06)
(-5.79449e-09 -1.7751e-08 -1.49068e-06)
(-2.50116e-09 -1.20037e-08 -6.10402e-07)
(-1.00467e-09 -5.59851e-09 -2.15031e-07)
(-3.71146e-10 -2.04682e-09 -6.56818e-08)
(-1.22999e-10 -6.3106e-10 -1.75581e-08)
(-3.62376e-11 -1.71446e-10 -4.1582e-09)
(-7.48444e-12 -1.01086e-11 -1.07594e-09)
(-3.42045e-12 -4.89931e-12 -4.96823e-10)
(-1.43007e-11 1.34904e-11 -4.12877e-10)
(-9.60857e-13 3.80682e-11 -1.00414e-09)
(-1.06871e-11 -4.73416e-12 -3.88988e-10)
(1.07652e-10 -6.18873e-11 -4.31062e-10)
(1.21223e-11 1.42729e-10 -5.43947e-10)
(-2.45365e-12 -2.08052e-11 -1.04923e-09)
(-3.20693e-10 1.81037e-10 -1.28464e-09)
(3.07051e-10 1.31954e-10 -1.29728e-09)
(-3.38067e-10 1.26158e-10 -1.30962e-09)
(2.89452e-10 1.94714e-10 -1.30524e-09)
(-1.92183e-10 1.61128e-10 -1.1531e-09)
(3.16132e-10 -3.97392e-11 -6.08906e-10)
(-2.2564e-10 -3.43701e-10 -1.46381e-09)
(6.65594e-10 1.07824e-09 -3.31034e-09)
(1.30405e-10 -2.10433e-11 -3.84161e-09)
(-1.80005e-09 -2.16379e-09 -7.08368e-09)
(-1.79722e-09 1.75729e-09 -6.56666e-09)
(7.73265e-10 -7.25265e-10 -3.11901e-09)
(2.89785e-11 -1.65046e-10 -3.72771e-09)
(1.04514e-10 -4.08158e-10 -4.32393e-09)
(-1.17734e-11 2.39019e-11 -1.04882e-09)
(-5.65757e-12 2.51762e-11 -1.04309e-09)
(2.01401e-12 2.41815e-11 -1.01692e-09)
(2.17817e-11 1.64273e-11 -7.98656e-10)
(7.04835e-11 5.53115e-11 -1.14388e-09)
(-1.83811e-10 -8.91405e-11 -4.68718e-09)
(-1.99508e-10 -1.11431e-10 -3.95166e-09)
(1.10747e-10 1.2116e-10 -1.96121e-09)
(-1.24018e-10 -3.96998e-10 -4.25616e-09)
(-6.24066e-10 -2.00881e-09 -1.84841e-08)
(-1.00283e-09 -8.35244e-10 -1.76197e-08)
(-8.36606e-10 -5.43866e-10 -1.95282e-08)
(-3.15449e-09 -2.27007e-09 -7.24469e-08)
(-3.80194e-09 -3.50036e-09 -6.79691e-08)
(6.33328e-10 8.40917e-10 -3.73477e-08)
(2.29116e-10 3.07548e-10 -9.15096e-09)
(1.20145e-10 5.03125e-10 -8.70271e-09)
(-2.21003e-09 1.58322e-09 -6.69271e-09)
(2.32784e-09 1.38894e-09 -6.73389e-09)
(-5.13702e-09 -2.30387e-09 -1.41431e-08)
(4.99335e-09 -1.95666e-09 -1.41053e-08)
(-1.75288e-10 6.08669e-10 -7.86072e-09)
(-2.48362e-09 1.2768e-09 -6.78532e-09)
(-3.12161e-11 -1.71121e-10 -3.78915e-09)
(-1.71545e-11 -3.5671e-10 -4.28393e-09)
(-3.51754e-11 -1.9285e-09 -1.84663e-08)
(-3.86642e-11 -7.64046e-09 -7.06651e-08)
(-2.23732e-09 -7.77239e-09 -7.06511e-08)
(-6.84017e-09 -2.53218e-08 -2.34508e-07)
(-1.22481e-08 -1.18007e-08 -2.27794e-07)
(-1.03005e-08 -7.7666e-09 -2.35707e-07)
(-2.85772e-08 -2.2079e-08 -6.66435e-07)
(-3.419e-08 -3.45248e-08 -6.6135e-07)
(2.67357e-09 3.37612e-09 -4.08707e-07)
(1.5262e-09 1.94385e-09 -1.3254e-07)
(1.44132e-09 4.21122e-09 -1.27647e-07)
(-3.56118e-08 2.30331e-08 -1.0406e-07)
(3.7503e-08 2.08444e-08 -1.03839e-07)
(-6.99235e-08 -3.5888e-08 -1.91642e-07)
(6.9033e-08 -3.06117e-08 -1.90649e-07)
(-1.87857e-09 6.88959e-09 -1.14598e-07)
(-3.9319e-08 1.83522e-08 -1.04545e-07)
(1.98609e-08 -8.33429e-09 -5.54565e-08)
(-6.11116e-10 2.19187e-09 -3.20409e-08)
(-1.05947e-08 5.12412e-09 -2.83283e-08)
(-1.00285e-10 -7.66895e-10 -1.64049e-08)
(1.00268e-08 5.74158e-09 -2.81252e-08)
(-2.02593e-08 -9.82802e-09 -5.56991e-08)
(3.22787e-11 2.3181e-09 -3.19081e-08)
(-9.54393e-09 6.38328e-09 -2.81293e-08)
(4.67426e-09 -2.61763e-09 -1.41555e-08)
(9.54191e-12 6.44557e-10 -7.80825e-09)
(-2.61421e-11 1.25408e-10 -9.32325e-09)
(-2.33947e-10 -2.29702e-10 -9.11427e-09)
(-1.95633e-09 -1.51115e-09 -7.43025e-09)
(8.36543e-11 6.13321e-11 -3.07915e-09)
(9.00469e-10 8.18776e-10 -3.53854e-09)
(3.95706e-11 -2.67521e-11 -1.47106e-09)
(-4.88051e-10 -3.10455e-10 -1.50434e-09)
(-1.10844e-10 -5.86517e-11 -5.61612e-10)
(2.05552e-10 -3.85661e-11 -1.54837e-09)
(-5.75006e-11 -3.82222e-11 -2.00839e-09)
(-9.02828e-12 4.46118e-11 -2.05397e-09)
(-4.42229e-12 1.7694e-10 -1.75107e-09)
(2.9684e-11 1.80648e-10 -1.92371e-09)
(-6.79029e-11 1.7273e-10 -1.93969e-09)
(-9.43559e-12 -2.47649e-11 -1.06088e-09)
(-1.32874e-10 1.09394e-10 -2.04782e-09)
(-1.6761e-11 1.67064e-11 -8.34914e-10)
(4.32576e-11 8.19815e-12 -1.07616e-09)
(4.74551e-10 -1.16644e-10 -4.58442e-09)
(1.19786e-10 -1.41229e-10 -3.99267e-09)
(-3.07852e-10 2.65705e-10 -9.42882e-09)
(-2.53799e-10 4.68428e-10 -8.74437e-09)
(6.3163e-10 -2.05273e-09 -1.8659e-08)
(2.46677e-09 -7.93975e-09 -7.11679e-08)
(8.0553e-09 -2.5931e-08 -2.36262e-07)
(7.48668e-11 -2.53094e-08 -2.35122e-07)
(5.53099e-10 -7.26874e-08 -6.77368e-07)
(-1.82169e-08 -7.1303e-08 -6.73913e-07)
(-4.41944e-08 -1.77804e-07 -1.66976e-06)
(-8.59319e-08 -9.32998e-08 -1.65635e-06)
(-6.71815e-08 -5.31734e-08 -1.62458e-06)
(-1.55787e-07 -1.34475e-07 -3.37513e-06)
(-2.34633e-07 -2.6462e-07 -3.5816e-06)
(-1.98864e-08 -1.06661e-08 -2.49697e-06)
(1.01207e-09 2.48361e-09 -1.09018e-06)
(9.01354e-09 1.83925e-08 -1.06621e-06)
(-3.23595e-07 2.02983e-07 -9.32625e-07)
(3.43503e-07 1.81559e-07 -9.28033e-07)
(-5.40437e-07 -3.02204e-07 -1.46897e-06)
(5.37497e-07 -2.63881e-07 -1.45752e-06)
(-1.3038e-08 4.34054e-08 -9.56706e-07)
(-3.56763e-07 1.59517e-07 -9.35345e-07)
(2.08094e-07 -9.69322e-08 -5.68571e-07)
(-5.15704e-09 1.86684e-08 -3.5657e-07)
(-1.27161e-07 5.79229e-08 -3.36184e-07)
(-6.84676e-10 -9.03033e-09 -2.10993e-07)
(1.22e-07 6.61212e-08 -3.33928e-07)
(-2.09712e-07 -1.12622e-07 -5.72002e-07)
(4.6014e-10 1.97903e-08 -3.55763e-07)
(-1.15447e-07 7.32234e-08 -3.35008e-07)
(6.42422e-08 -3.93618e-08 -1.9142e-07)
(1.30564e-10 7.29438e-09 -1.1428e-07)
(-4.68414e-11 1.39684e-09 -1.31376e-07)
(-5.78786e-11 4.4519e-10 -3.73448e-08)
(-8.35165e-10 -8.83907e-10 -3.63315e-08)
(-8.035e-09 -6.56732e-09 -3.1073e-08)
(1.11132e-10 1.91517e-10 -1.34705e-08)
(4.03743e-09 3.56146e-09 -1.53841e-08)
(6.87579e-11 4.38499e-11 -6.60773e-09)
(3.94533e-10 -6.85898e-11 -6.80199e-09)
(-4.6417e-09 -3.37383e-09 -1.52601e-08)
(8.77405e-09 7.81221e-09 -3.07552e-08)
(-1.79342e-08 -1.34564e-08 -5.91106e-08)
(-1.79349e-08 1.34568e-08 -5.91104e-08)
(3.32575e-10 4.08136e-11 -5.15651e-08)
(3.2473e-08 -2.83461e-08 -1.11746e-07)
(1.85131e-09 8.7482e-10 -9.79213e-08)
(-6.1805e-08 4.71013e-08 -2.02103e-07)
(7.02518e-10 -2.35005e-10 -1.71405e-07)
(1.04776e-07 -9.02063e-08 -3.56213e-07)
(3.12105e-09 2.6224e-09 -3.03923e-07)
(-1.84741e-07 1.42923e-07 -6.01407e-07)
(1.35541e-09 -2.31656e-09 -4.94457e-07)
(2.93141e-07 -2.47888e-07 -9.82652e-07)
(3.03493e-10 5.7813e-09 -8.13128e-07)
(-4.67193e-07 3.72261e-07 -1.54119e-06)
(5.29197e-09 -1.63071e-08 -1.22537e-06)
(7.09942e-07 -5.7953e-07 -2.31763e-06)
(-3.40023e-08 5.10696e-09 -1.85707e-06)
(-9.65261e-07 8.2528e-07 -3.3794e-06)
(3.65329e-08 -1.0234e-07 -2.58523e-06)
(1.52094e-06 -1.11155e-06 -4.5533e-06)
(-2.54292e-07 -9.93645e-08 -3.6314e-06)
(-1.43914e-06 1.46835e-06 -6.39187e-06)
(-1.99982e-07 -2.35762e-11 -5.51234e-06)
(-1.43911e-06 -1.46834e-06 -6.39184e-06)
(4.00414e-07 8.07103e-07 -4.61603e-06)
(2.34232e-06 1.59626e-06 -6.29713e-06)
(-7.66586e-08 2.29803e-07 -3.76365e-06)
(-1.25094e-06 -1.18943e-06 -4.96397e-06)
(-4.2855e-08 -1.19968e-08 -2.6093e-06)
(1.0018e-06 7.90927e-07 -3.49183e-06)
(-1.51336e-08 6.12684e-08 -1.84493e-06)
(-6.42143e-07 -5.71393e-07 -2.4124e-06)
(-1.63306e-08 5.47025e-10 -1.23936e-06)
(4.32565e-07 3.61149e-07 -1.5959e-06)
(-5.40709e-09 1.75566e-08 -8.03588e-07)
(-2.70697e-07 -2.34131e-07 -1.01491e-06)
(-4.60603e-09 1.35927e-09 -4.99037e-07)
(1.65503e-07 1.40652e-07 -6.19785e-07)
(-1.06368e-09 5.24935e-09 -2.99249e-07)
(-9.68282e-08 -8.2353e-08 -3.66059e-07)
(-9.4754e-10 9.5353e-10 -1.72465e-07)
(5.49951e-08 4.71806e-08 -2.0729e-07)
(-1.27731e-11 1.55752e-09 -9.61486e-08)
(-2.98141e-08 -2.49656e-08 -1.14149e-07)
(-2.52592e-11 4.79927e-10 -5.16027e-08)
(1.59145e-08 1.37955e-08 -6.02594e-08)
(1.13524e-10 3.81218e-10 -2.68888e-08)
(8.65358e-10 -2.45081e-10 -2.74805e-08)
(-1.3295e-09 -1.50037e-09 -3.98269e-08)
(-3.96487e-10 -3.77332e-10 -1.04238e-08)
(-1.11781e-10 -6.66521e-11 -2.58624e-09)
(6.25661e-11 3.81211e-11 -7.99133e-10)
(-7.94295e-12 -4.1631e-14 -6.21667e-10)
(-1.83214e-10 -6.19885e-15 -1.38033e-09)
(-7.58564e-10 -4.90871e-13 -5.14449e-09)
(-2.72032e-09 -5.43116e-14 -1.9984e-08)
(-8.94631e-09 9.88463e-13 -7.2149e-08)
(-2.58647e-08 5.95569e-12 -2.31931e-07)
(-6.16698e-08 2.22738e-11 -6.49436e-07)
(-1.08412e-07 1.38367e-10 -1.56128e-06)
(-1.04042e-07 2.83969e-11 -3.17611e-06)
(3.93448e-09 -2.17397e-11 -5.22975e-06)
(-1.8467e-07 -9.98519e-11 -6.93008e-06)
(-1.22338e-06 5.68235e-07 -6.58934e-06)
(-1.22338e-06 -5.68308e-07 -6.58932e-06)
(-1.24655e-06 -7.81606e-07 -5.77394e-06)
(-1.04712e-06 -8.06608e-07 -7.15378e-06)
(-2.96429e-07 -1.6082e-07 -4.83626e-06)
(-1.35084e-07 -4.21412e-07 -3.56071e-06)
(-5.79968e-07 -1.37099e-06 -6.73639e-06)
(8.20759e-07 3.46113e-06 -4.87315e-06)
(1.14184e-06 -1.65611e-07 -5.16125e-06)
(3.74345e-08 1.03629e-07 -4.33749e-06)
(2.15024e-08 6.41168e-09 -4.42148e-06)
(5.04828e-08 -4.76722e-08 -4.32453e-06)
(-2.54249e-07 9.93653e-08 -3.63137e-06)
(1.52084e-06 1.11161e-06 -4.55323e-06)
(3.65645e-08 1.02278e-07 -2.58518e-06)
(-9.65255e-07 -8.25248e-07 -3.37939e-06)
(-1.11759e-07 -9.5673e-12 -3.01915e-06)
(-8.42041e-08 -8.89405e-12 -3.16862e-06)
(-5.4318e-08 -9.41729e-12 -1.51181e-06)
(5.32488e-09 1.62989e-08 -1.22533e-06)
(-4.67179e-07 -3.72255e-07 -1.54118e-06)
(7.09902e-07 5.79525e-07 -2.31755e-06)
(-3.40101e-08 -5.10968e-09 -1.85708e-06)
(-1.37886e-08 -3.20458e-08 -2.31429e-06)
(-1.29902e-08 -1.77479e-08 -1.02464e-06)
(2.95838e-10 -5.79106e-09 -8.13118e-07)
(2.93095e-07 2.47891e-07 -9.8262e-07)
(1.36529e-09 2.30904e-09 -4.94448e-07)
(-1.84725e-07 -1.42924e-07 -6.01415e-07)
(-1.12302e-08 1.79196e-12 -5.77838e-07)
(-2.691e-08 6.01662e-13 -6.19953e-07)
(-1.08457e-08 -8.6998e-13 -2.18817e-07)
(-3.61528e-09 -6.5191e-13 -6.70391e-08)
(3.33971e-10 -4.30109e-11 -5.15635e-08)
(3.24709e-08 2.83457e-08 -1.11741e-07)
(-6.18036e-08 -4.71e-08 -2.02105e-07)
(1.0477e-07 9.02104e-08 -3.562e-07)
(3.12275e-09 -2.62048e-09 -3.03912e-07)
(-6.62938e-09 -7.90887e-09 -3.8867e-07)
(-2.58596e-09 -2.88843e-09 -1.27303e-07)
(1.86178e-10 -5.76117e-13 -6.90856e-08)
(3.5874e-11 -1.7784e-13 -1.84386e-08)
(7.39791e-12 -1.97253e-14 -4.38961e-09)
(-2.3074e-10 -4.31561e-14 -4.32739e-09)
(2.12941e-11 -8.9882e-11 -3.23253e-09)
(2.07721e-09 1.92994e-09 -7.60251e-09)
(9.4265e-11 -4.6628e-14 -3.93371e-09)
(2.07734e-09 -1.93011e-09 -7.60265e-09)
(3.94169e-10 6.84977e-11 -6.80218e-09)
(-4.64168e-09 3.37387e-09 -1.52603e-08)
(1.1666e-10 8.62586e-11 -1.36353e-08)
(8.77543e-09 -7.81301e-09 -3.07572e-08)
(8.65654e-10 2.44725e-10 -2.74813e-08)
(-8.35091e-10 8.83334e-10 -3.6332e-08)
(-1.00384e-09 -2.30024e-14 -1.80248e-08)
(1.16791e-10 -8.69189e-11 -1.36344e-08)
(-1.7297e-11 -1.28996e-13 -1.61663e-08)
(-2.33891e-10 2.29538e-10 -9.11435e-09)
(-5.74699e-11 3.81781e-11 -2.00845e-09)
(-4.88116e-10 3.10485e-10 -1.50446e-09)
(3.96236e-11 2.67453e-11 -1.47118e-09)
(9.00422e-10 -8.18836e-10 -3.5388e-09)
(2.0549e-10 3.8517e-11 -1.54849e-09)
(4.17946e-10 -4.38202e-10 -1.82021e-09)
(-3.09984e-11 8.97796e-11 -7.1005e-10)
(-3.12552e-10 1.64923e-10 -6.97728e-10)
(6.65416e-11 -1.13714e-16 -9.87273e-10)
(7.84544e-11 -9.06424e-11 -4.24156e-10)
(1.09358e-10 3.15782e-11 -3.26256e-10)
(5.97654e-11 -1.22261e-10 -4.25876e-10)
(1.51614e-10 -3.28731e-11 -4.64617e-10)
(9.05791e-11 -6.19062e-11 -7.5346e-10)
(4.18096e-11 -4.33109e-12 -4.65968e-10)
(-2.79707e-11 -1.98489e-11 -3.6428e-10)
(2.44025e-11 -1.49147e-11 -4.20598e-10)
(-6.10265e-12 5.86802e-12 -3.21887e-10)
(-7.32474e-12 1.94395e-11 -3.25979e-10)
(3.56397e-11 -3.45933e-11 -3.64296e-10)
(-7.62632e-12 9.66416e-12 -3.00371e-10)
(4.9169e-12 -3.63038e-11 -3.88711e-10)
(-1.49542e-12 1.98405e-11 -3.34458e-10)
(-1.85993e-12 1.41159e-14 -3.39355e-10)
(-1.48599e-12 -1.98541e-11 -3.34477e-10)
(-1.33006e-12 -1.05986e-11 -3.05166e-10)
(-6.9517e-13 6.62476e-11 -4.85679e-10)
(4.92257e-12 3.6298e-11 -3.8872e-10)
(-1.35864e-12 8.08131e-12 -4.34764e-10)
(2.44101e-11 1.49328e-11 -4.20639e-10)
(-1.46004e-11 -1.16107e-11 -3.87413e-10)
(-2.80008e-11 1.99013e-11 -3.64321e-10)
(4.17738e-11 4.33533e-12 -4.65933e-10)
(-3.73119e-12 8.14817e-12 -4.43994e-10)
(7.27007e-12 -1.89762e-11 -3.37893e-10)
(6.53684e-12 -9.71842e-12 -3.14354e-10)
(-8.33811e-12 3.67603e-11 -3.97991e-10)
(-3.95314e-11 3.52779e-11 -3.86428e-10)
(6.26531e-12 -4.01372e-12 -3.46087e-10)
(-2.78287e-11 1.18237e-11 -4.23457e-10)
(3.90161e-11 7.13411e-11 -4.09112e-10)
(1.3e-10 -6.68808e-11 -5.08372e-10)
(-1.23218e-10 1.20299e-10 -5.40369e-10)
(5.60342e-12 2.53508e-11 -9.66301e-10)
(6.52446e-12 7.75713e-15 -3.40075e-10)
(1.99397e-12 3.57104e-14 -5.39739e-10)
(8.50766e-12 7.06002e-15 -1.17318e-09)
(-1.26286e-11 -4.58703e-15 -1.18796e-09)
(-5.15471e-12 2.67887e-14 -5.43308e-10)
(-4.33666e-11 -2.52269e-14 -4.43801e-09)
(-1.46412e-10 6.6609e-15 -1.85593e-08)
(-4.35225e-10 -9.59224e-14 -6.93811e-08)
(-1.1506e-09 -6.74036e-13 -2.27209e-07)
(7.92782e-10 -2.76689e-13 -2.26674e-07)
(2.89541e-09 2.42213e-12 -6.44876e-07)
(9.42281e-09 4.0789e-12 -1.57745e-06)
(2.49145e-08 -7.3088e-12 -3.30752e-06)
(-1.05115e-07 -1.504e-11 -6.78622e-06)
(-4.38317e-07 2.23007e-12 -6.36334e-06)
(1.51587e-06 -5.67873e-11 -1.07855e-05)
(-2.40701e-07 -1.00858e-06 -6.20646e-06)