/*--------------------------------*- C++ -*----------------------------------*\
| =========                 |                                                 |
| \\      /  F ield         | OpenFOAM: The Open Source CFD Toolbox           |
|  \\    /   O peration     | Version:  2306                                  |
|   \\  /    A nd           | Website:  www.openfoam.com                      |
|    \\/     M anipulation  |                                                 |
\*---------------------------------------------------------------------------*/
FoamFile
{
    version     2.0;
    format      ascii;
    arch        "LSB;label=32;scalar=64";
    class       volScalarField;
    location    "0.5";
    object      gradTy;
}
// * * * * * * * * * * * * * * * * * * * * * * * * * * * * * * * * * * * * * //

dimensions      [0 -1 0 1 0 0 0];

internalField   nonuniform List<scalar> 
2658
(
0.00785082
0.00468695
0.00134722
1.02626e-05
-0.0108568
0.0131088
-0.00905882
0.00764916
0.000182549
-0.00938595
0.00252342
-0.0290862
0.0194316
0.019685
0.0162976
0.0165608
0.0178663
0.0163544
0.0166638
0.0194551
0.0189007
0.0168797
0.00578661
-0.00310305
0.00550057
0.0178198
-0.00363931
0.00120292
0.0145229
-7.70323e-07
-0.0145231
0.00363943
-0.0178208
-0.0057868
-0.00550048
0.00310336
-7.37845e-06
0.00155646
-0.0168848
-0.0189017
-0.0194565
-0.0166644
-0.0163531
0.00759675
-0.0001075
0.000373865
-0.00252356
0.0079286
-0.0165637
-0.0162978
-0.0196838
-0.0194319
-0.0176814
0.00342764
-0.00664642
-0.00562804
0.000463912
-0.00752017
-1.23541e-07
0.000137494
-0.0004636
0.00562802
0.00664693
-0.00342805
0.00245469
-0.00831321
-0.010191
-0.000617473
-0.0145344
0.0145344
1.07412e-07
0.00986228
-0.000207307
0.00639459
5.16536e-05
-0.00493168
-0.00482798
0.000367625
0.00352067
0.00225578
-0.00326252
-0.000742857
0.005202
0.00795259
-3.8105e-05
-2.41742e-05
2.54091e-05
1.86627e-05
7.87055e-06
2.64739e-06
8.0098e-07
-2.27926e-07
4.63397e-08
5.89546e-07
-1.8445e-07
-1.21434e-06
-4.14899e-08
-5.6619e-07
-6.11999e-08
-1.62203e-07
-5.84436e-07
-1.20681e-07
-1.00854e-06
-2.5334e-07
-2.73534e-07
5.73431e-07
-2.18902e-07
-2.04231e-07
9.91393e-08
-5.63453e-07
1.67329e-07
-2.26656e-07
3.03901e-11
2.26766e-07
-1.67484e-07
5.63431e-07
2.73417e-07
-5.73896e-07
1.00834e-06
2.5323e-07
1.20155e-07
5.84442e-07
1.62222e-07
6.11087e-08
-4.72104e-07
-4.42218e-07
-5.89896e-07
1.21452e-06
4.18387e-08
1.84538e-07
5.95269e-07
9.89313e-08
2.68345e-07
3.3604e-07
5.66347e-07
-2.93504e-07
1.0899e-07
1.6922e-07
-8.82245e-07
8.82868e-07
-1.08698e-07
2.93606e-07
-1.47038e-07
-1.41488e-07
-1.31687e-09
1.41325e-07
5.1439e-10
6.47448e-10
-3.17009e-07
3.1213e-07
1.37392e-09
3.03803e-08
2.15762e-07
-2.54945e-07
9.05268e-07
1.92363e-07
8.81173e-07
1.08162e-06
1.17231e-06
8.70033e-07
8.8115e-07
1.08874e-06
8.98814e-07
8.46752e-07
1.16351e-06
1.0804e-06
8.8956e-07
2.80798e-07
2.77952e-07
1.02541e-06
-5.18011e-06
1.32795e-05
-2.47898e-05
5.47103e-05
-0.000103321
0.000199187
-0.000371287
0.000634968
-0.00115003
0.0017538
-0.00306491
0.00416503
-0.0070515
0.00838515
0.00837845
0.00706896
0.00672865
0.00938631
0.0108565
-1.035e-05
-0.0131091
0.0101911
0.00831269
-0.00245461
0.0290859
-0.00389751
3.79418e-05
2.40661e-05
-2.54212e-05
-1.86763e-05
-7.88052e-06
-2.64632e-06
-8.01165e-07
2.27912e-07
-4.64742e-08
-2.96192e-08
-3.25745e-07
3.30797e-07
-3.69736e-07
3.69705e-07
3.26079e-07
2.93237e-08
-3.31153e-07
-8.12582e-08
4.4205e-07
4.71889e-07
-1.21995e-06
5.2858e-07
8.04348e-08
4.03554e-08
-1.15691e-07
4.17114e-08
8.61889e-08
1.65772e-07
-6.09262e-11
-1.6598e-07
-8.08924e-08
2.18862e-07
-4.94204e-07
2.04593e-07
-4.77452e-07
4.78096e-07
4.94519e-07
2.18651e-10
-3.15377e-07
-4.00331e-07
4.00867e-07
-3.25499e-07
3.16013e-07
-6.89968e-08
1.5955e-10
-1.66263e-07
-8.26326e-08
2.9538e-07
-5.02758e-08
1.03213e-10
9.70615e-11
-7.83369e-11
-7.67141e-07
5.28964e-07
1.04525e-06
-2.69583e-07
7.74796e-07
-1.40958e-06
3.7451e-06
-6.40724e-06
6.4064e-06
7.66803e-07
1.29177e-05
-3.74771e-07
-3.04427e-05
5.61394e-05
-3.25671e-06
-0.00011791
0.0002134
-1.33416e-05
-0.000403248
0.000703907
-4.49999e-05
-0.00120203
0.00200136
-0.000150279
-0.00308642
0.00488398
-0.000524032
-0.00676033
0.0101666
-0.00196507
-0.0136427
-0.00689953
-0.0160589
0.0160591
-0.00120238
-0.00505963
0.0086197
0.00767881
-2.50215e-07
-0.00526567
0.00526546
0.00562677
-1.78166e-07
-0.00669503
0.00669486
0.00281845
-1.49755e-07
-0.0181609
0.0181607
-0.0121942
1.83625e-07
0.012194
-0.00956509
0.00606074
0.0139756
0.0100744
0.0114885
-0.0183374
0.012362
0.0015044
0.00104199
1.87868e-05
-0.00281874
-0.00103184
-0.00318326
-0.010491
0.00645877
0.0173
0.00761339
0.00800898
-0.00439683
8.16677e-08
0.00439702
0.00318332
-0.0123622
0.0183375
-0.0139766
-0.00606114
0.0095652
-0.00150466
-0.00104208
-0.00800764
-0.00761399
-0.0172997
-0.00645894
0.0104909
-0.0092887
-0.0046008
-0.0159579
-0.00417639
0.0098244
0.00241626
-0.0020271
0.010627
-0.00238532
-0.00302464
-0.000421072
-0.000266615
-0.000153803
-6.67095e-05
-2.34547e-05
-7.05254e-06
-1.92117e-06
-1.27336e-06
-4.63932e-06
-3.94032e-06
-3.42939e-06
-5.87189e-06
1.54063e-05
-2.83107e-05
6.36273e-05
-0.000117509
0.000231789
-0.000422569
0.000738621
-0.00131504
0.0020385
-0.00352066
0.00482821
-0.00795271
-0.000182925
-0.00764886
0.00905946
-0.00986252
0.00720012
-5.61619e-08
-0.00720015
0.0045709
-0.00417275
0.00335818
-0.00202978
0.0026575
5.0727e-05
0.00125927
0.000193485
-0.00203836
-0.000370983
-0.00136338
-0.00155167
0.000200158
0.000962665
0.00105313
-0.00173494
-0.000392803
0.00258312
0.00036635
-0.00364473
0.00578846
0.000131337
-0.00672861
-0.000820683
-0.000373808
-0.00792866
0.0092886
-0.0106273
0.00202676
0.000557841
-0.000284857
-6.98024e-08
-0.00020465
-0.000151718
-0.000102596
-4.78505e-05
-1.74942e-05
-5.39367e-06
-1.46535e-06
-8.63982e-08
-4.18744e-08
1.15303e-07
3.25369e-07
-4.04629e-08
-5.28951e-07
1.2199e-06
-1.77823e-07
1.54733e-06
1.12781e-06
1.07827e-06
1.66422e-06
1.37716e-06
-3.39651e-07
-2.93762e-06
9.21573e-06
-1.79857e-07
-1.84939e-05
1.50195e-05
-6.19885e-06
-1.41065e-06
-3.48853e-06
2.0429e-07
2.15182e-07
2.06679e-07
1.40404e-07
4.72748e-07
-7.61885e-07
-9.52405e-07
1.03556e-06
-3.39315e-06
-1.71693e-05
-7.13884e-06
-4.64843e-06
-1.94023e-05
-2.99176e-05
7.18732e-06
2.62862e-06
4.30021e-06
1.35318e-05
1.18713e-05
-1.96912e-05
-1.67236e-05
5.2023e-06
1.09128e-05
-1.46258e-06
-3.04881e-06
-1.64829e-05
-6.53031e-05
-6.64307e-05
-0.000216426
-0.000100861
-6.63812e-05
-0.000188709
-0.000295084
2.88557e-05
1.66141e-05
3.59933e-05
0.000196864
0.000178157
-0.000306735
-0.000261639
5.88854e-05
0.000156856
-7.12332e-05
1.8734e-05
4.37959e-05
-6.55466e-06
4.90733e-05
-8.40001e-05
1.98128e-05
5.45579e-05
-2.23729e-05
5.50904e-06
1.07186e-06
-1.96326e-06
-1.29158e-05
5.24206e-07
6.99808e-06
-2.2865e-07
-2.65347e-06
-5.01296e-07
-3.29625e-07
-3.26685e-07
3.81298e-07
1.51231e-06
1.544e-06
1.47632e-06
-2.11665e-07
9.34992e-07
1.42789e-07
7.00697e-08
-9.96953e-07
-1.20709e-06
2.27098e-06
4.00366e-06
-1.75447e-05
-6.78611e-05
-0.000221633
-0.00021632
-0.000621259
-0.000609428
-0.0015197
-0.000797434
-0.000454474
-0.00114936
-0.00226171
-9.1163e-05
2.12274e-05
0.000157201
0.00173489
0.00155179
-0.00258294
-0.0022554
0.000370986
0.0013634
-0.00082848
0.000159559
0.000495068
-7.71823e-05
0.000565138
-0.000962582
0.000169148
0.000625841
-0.000336426
6.23451e-05
1.19388e-05
3.80505e-06
-7.55476e-06
-5.6131e-05
1.6369e-06
3.04398e-05
3.74785e-07
-5.86238e-07
-2.88362e-05
6.67711e-05
-0.000115012
0.000115016
3.48834e-07
-0.000242274
7.47709e-06
0.000402575
-2.00859e-06
-0.000770994
2.24136e-05
0.00122156
-1.97997e-05
-0.0021187
4.94129e-05
0.00318172
-0.000139377
-0.00495324
4.36492e-05
0.00705368
-0.000874703
-0.00950041
-0.000849269
0.01255
-2.01506e-07
-0.0125499
0.00689832
0.0136432
0.00196413
-0.0101661
-0.000102537
0.00676006
0.000523662
-0.0048837
4.67543e-06
0.00308675
0.000150056
-0.00200112
1.16177e-05
0.00120215
4.48662e-05
-0.000703872
8.14983e-06
0.000403253
1.33121e-05
-0.000213381
4.10194e-06
0.00011791
3.25827e-06
-2.09471e-06
-1.28236e-05
-3.22506e-06
-5.69676e-07
3.25822e-07
-3.55821e-10
-5.29816e-11
-4.19548e-09
-4.64201e-10
8.44841e-09
5.09033e-08
1.90375e-07
1.18262e-06
2.42708e-07
-1.85809e-07
-8.53435e-07
0.00485671
-0.00485733
-0.0066804
-0.00689409
-0.00137453
-0.00360181
-0.0117179
0.0295823
-0.00141548
0.000885715
5.48007e-05
-0.000407454
0.000849276
0.00950094
0.000874173
-0.0070534
-8.17718e-08
-7.60176e-08
-8.04897e-08
0.000139307
-0.00318167
0.00495321
-4.36725e-05
-0.000273896
-0.000151692
-4.94963e-05
0.00211872
1.97354e-05
-0.00122158
1.53159e-08
5.14241e-09
-7.43572e-09
-5.57188e-09
-3.67615e-07
0.000242271
-0.000402564
0.000771029
-2.23973e-05
-6.75972e-05
-2.46875e-05
-4.92407e-09
-1.52e-09
-1.68592e-10
-3.68855e-10
-7.68222e-07
1.64952e-05
-3.9853e-10
-1.64967e-05
5.85451e-07
2.88365e-05
7.37253e-07
-6.67778e-05
2.09167e-06
7.54987e-06
-1.96602e-10
-7.42897e-07
-1.10253e-09
1.96186e-06
3.26309e-07
2.65372e-06
2.28592e-07
-6.99859e-06
3.29205e-07
-3.74532e-06
7.67347e-07
1.4096e-06
-9.71915e-13
-7.74721e-07
2.699e-07
-1.04496e-06
-2.80967e-07
-5.29113e-07
-3.70179e-08
-1.69648e-07
-1.27476e-07
5.01541e-08
1.6615e-07
-2.9567e-07
8.25997e-08
-3.10289e-07
1.69577e-07
1.20649e-10
-1.69693e-07
-9.0586e-08
5.66219e-07
3.10239e-07
6.90711e-08
1.2763e-07
-9.92369e-08
1.70096e-07
3.70541e-08
6.96425e-08
-1.62189e-07
-8.30634e-08
3.1419e-07
3.0152e-07
-3.43053e-08
1.01058e-07
6.09753e-07
-5.71631e-07
1.0282e-06
2.16674e-07
6.63003e-11
3.05217e-10
6.0342e-11
-3.92054e-11
2.28963e-10
-2.15614e-10
5.69308e-11
-8.1985e-10
-5.76099e-09
-2.36486e-09
2.0702e-08
3.48624e-08
-6.24684e-08
-1.28547e-07
1.90604e-08
-4.85361e-07
-0.00862032
0.00505984
-0.00445858
0.00734137
-0.00734161
0.00445826
-0.0144568
0.001493
-0.00579326
0.0126757
0.00324159
-0.00021413
0.0116951
-0.00930118
-0.00695759
-0.0171955
-0.00598296
-0.00850739
-0.0107561
-0.00671633
0.000851839
0.00613513
0.00192392
-1.70127e-06
2.57809e-07
-0.00192326
0.0144564
0.00579285
-0.00149336
0.00412797
-0.00324193
-0.0116956
0.000213781
0.00127039
-0.00241652
-0.00982457
0.00417566
0.0159573
0.00460077
0.00703785
-0.00598162
-0.00613666
7.48424e-07
-0.00194904
-0.00412818
0.000494292
-0.000274872
-0.00684664
0.00598138
0.00139036
-0.00703783
7.76728e-05
-1.90867e-05
0.00103155
-0.000557911
0.000284708
0.000820603
-0.000995576
-0.00379766
-0.00158143
0.000241967
0.00417256
0.00364525
-0.00578849
-0.00520144
0.000742933
0.00326248
-0.000366424
0.000190688
-0.00159286
-0.000630446
0.000134609
7.39684e-05
3.25103e-05
1.21595e-05
1.32721e-05
-9.30705e-05
-2.09658e-05
5.70631e-06
6.24298e-05
-1.89171e-06
-7.83845e-05
0.000157293
-7.50924e-06
-0.000291242
0.000227737
-0.000114305
-2.31243e-05
-0.000407184
-2.28731e-05
-0.000945156
0.000728294
-7.34961e-05
-0.00125915
-5.07365e-05
-0.00265745
0.00202961
-0.000193509
-0.00335804
-5.13912e-05
-0.00639484
0.00493127
-0.000367956
-0.00033127
-0.00375249
-0.0119074
-0.0119365
-0.0178711
-0.000960973
0.0267091
-0.00208279
-0.00238659
-0.00134705
-0.000500408
-0.000199608
-7.13017e-05
-2.21705e-05
-5.74144e-06
-7.3756e-06
5.94836e-06
3.14885e-06
8.90123e-05
1.8076e-09
-8.90223e-05
0.0001709
-7.7586e-09
-0.000329053
0.000329031
-0.000170903
-4.65807e-09
-1.23404e-09
-1.18729e-10
4.18133e-07
1.43964e-06
8.55412e-08
3.15215e-06
7.31313e-10
-3.15267e-06
9.72231e-06
5.49332e-11
-2.11684e-05
2.1166e-05
-9.72124e-06
4.65786e-07
6.75047e-07
-3.9604e-07
3.96344e-07
-1.49065e-07
-7.46853e-08
-6.75375e-07
2.93804e-06
3.40191e-07
-1.3776e-06
6.20034e-06
1.79023e-07
-1.50225e-05
1.84948e-05
-9.21502e-06
-8.46688e-08
-4.18149e-07
-3.81488e-07
1.9212e-06
-5.22925e-07
5.18126e-06
1.2743e-06
-1.35309e-05
-5.50763e-06
1.96925e-05
6.5547e-06
-4.3795e-05
-1.87362e-05
7.12648e-05
0.000117509
2.31341e-05
-0.000227757
0.000291224
7.52039e-06
0.000114331
-6.24405e-05
7.83879e-05
1.89134e-06
2.80002e-05
6.32798e-06
-6.36226e-05
2.83123e-05
1.673e-05
-1.09144e-05
-5.20139e-06
-1.54045e-05
1.41064e-06
5.87184e-06
3.4302e-06
1.46241e-06
-1.18707e-05
3.94067e-06
4.64059e-06
-1.54753e-06
-1.51171e-06
-1.12733e-06
2.66854e-06
-1.07829e-06
-1.43958e-06
-1.66393e-06
2.65953e-06
-8.70016e-07
-8.81067e-07
2.12266e-07
-1.4763e-06
-1.54402e-06
-1.03548e-06
-4.72785e-07
-3.25905e-07
5.6934e-07
3.22644e-06
7.62366e-07
4.65529e-06
1.28187e-05
4.29858e-05
1.9424e-05
6.64312e-05
0.000119711
-0.000119803
-4.29924e-05
-7.48326e-06
-0.000263353
0.000263116
0.000188768
0.00045471
0.000423028
-0.000423573
-0.000552164
0.000552606
0.00115074
0.00668127
0.00689469
0.00137731
-0.00838513
7.7477e-05
-0.00837836
-0.000885845
0.000107349
-0.0267094
0.00238516
0.00302442
0.000420797
0.000266493
0.0001537
6.66865e-05
2.34455e-05
7.05264e-06
-1.63483e-06
2.47955e-05
5.76306e-06
-5.45572e-05
-1.98164e-05
8.40024e-05
2.43109e-05
-0.000156852
-5.88459e-05
0.000261729
0.000422596
7.34677e-05
-0.000728382
0.000945137
2.29112e-05
0.000407259
-0.000540571
-1.0446e-05
0.000590174
-1.72081e-08
-0.00106402
0.00106397
-0.000590207
1.04267e-05
0.000540625
1.8747e-05
5.40165e-09
4.85158e-09
1.07409e-09
1.508e-09
-4.66298e-07
-7.01698e-08
-9.06404e-07
2.56775e-07
1.00242e-07
-5.66711e-07
-3.36322e-07
-2.68654e-07
-1.02841e-06
-9.88244e-08
-5.95058e-07
-1.17166e-06
-1.08134e-06
-2.17365e-07
-8.8144e-07
-1.92439e-07
-1.42718e-07
-2.03764e-07
-2.14857e-07
-2.06327e-07
-1.16327e-06
-8.4669e-07
1.77814e-07
-8.98757e-07
-1.08921e-06
2.62063e-06
-1.02568e-06
5.01345e-07
-2.78457e-07
-1.08052e-06
-8.90166e-07
-1.39443e-07
3.39526e-06
9.50634e-07
-2.62484e-06
-1.32779e-05
-4.29944e-06
2.23806e-05
1.71726e-05
7.18441e-06
-7.17045e-06
-5.4707e-05
0.000103345
2.09784e-05
-0.000196854
-6.23377e-05
0.000336497
0.000306744
7.7175e-05
-0.000495127
-0.00015957
0.000828701
0.001315
-0.000738552
-7.39453e-05
-8.32709e-05
-0.000625764
-0.000169084
-0.000565083
4.78337e-05
1.7486e-05
5.3911e-06
1.46511e-06
-1.07226e-06
-3.80594e-06
-1.1941e-05
2.46756e-05
6.75663e-05
-3.28415e-05
3.28123e-05
7.7535e-05
0.000392706
-0.00284538
-0.000296318
0.000149589
0.000776128
-0.00660489
-7.78349e-05
0.00021948
0.000103942
4.30887e-05
1.54227e-05
4.82635e-06
1.33576e-06
8.03914e-07
4.02491e-05
-4.34185e-05
4.34214e-05
-4.02452e-05
-8.06133e-07
-1.33545e-06
-4.82845e-06
-3.14739e-06
-0.000157286
-5.95369e-06
-1.67761e-06
1.00054e-06
5.74934e-06
2.21832e-05
-1.87462e-05
-1.18251e-05
-5.69598e-06
-1.21586e-05
-1.32686e-05
9.30891e-05
6.64647e-05
3.01132e-05
-1.65436e-05
-0.000199174
0.000371354
6.5572e-05
-0.000634947
0.00115022
0.000166936
-0.00175368
0.00306505
0.000296152
-0.00417291
-0.000776415
0.00660525
0.00705187
0.000102494
-0.00416478
-4.57223e-06
9.13175e-05
-2.06895e-05
-2.8642e-05
0.00010137
0.000216509
0.000609675
0.000296707
0.00151971
0.000801951
0.00360235
0.00225881
0.0117175
-0.0295823
7.07158e-06
-0.00155517
0.0107554
0.00598239
0.0171956
0.00695767
0.00930104
-0.00759665
0.00141578
0.000960617
-0.00706879
0.000204455
0.000151619
0.000102539
-3.2117e-08
-5.39952e-08
-0.000149655
0.000273824
0.000151628
-7.75539e-05
-0.000104027
-1.59632e-08
-1.12993e-08
-4.31049e-05
-1.54367e-05
-3.02672e-05
-0.00161821
0.00177248
-3.03219e-08
-0.00298761
0.00298752
-0.00177256
3.02469e-05
0.00161833
5.12255e-05
1.35311e-05
-9.91095e-05
1.18475e-05
-2.97052e-05
-3.79556e-05
-0.000294205
0.000120035
0.00417275
-0.00457082
8.00349e-05
-4.92116e-08
-3.94049e-08
-7.92464e-08
-1.10127e-07
-0.00562734
0.000867257
-5.49694e-05
0.000407198
-0.000494146
-0.00767984
0.00194901
0.000274248
0.00684623
0.00671551
-0.0126754
0.00850646
-0.000852065
-0.00139102
-3.52749e-07
0.00389738
0.00752004
-0.000320785
5.17271e-07
0.000247463
0.000207306
0.000320977
-0.00468724
-0.00785157
-0.00746671
3.96874e-08
-0.000137423
7.69881e-07
0.000617348
3.16194e-07
4.78146e-08
3.75644e-09
-5.12323e-05
7.13631e-05
0.000199663
-0.000120087
-8.01849e-05
3.80291e-05
-1.34787e-05
0.000221722
6.78795e-05
1.75565e-05
3.48978e-06
3.05066e-06
1.64888e-05
6.53217e-05
-3.59699e-05
-0.000178146
0.000216362
0.000621393
-0.000157059
0.00284583
-0.000241382
-0.000190507
-0.000134411
0.000630738
0.0015936
0.00158186
0.00379848
0.0119363
0.000995509
0.00375224
0.0119069
0.00208219
0.000331246
-0.000247723
0.000500239
0.000829647
0.00238692
0.000294714
-3.25121e-05
-0.000231745
-4.00392e-06
-2.27034e-06
-9.35128e-07
1.20911e-06
7.38417e-06
2.97863e-05
9.91747e-05
-0.00021953
-0.000828665
-1.15789e-05
-8.14288e-06
-4.0983e-06
-4.90705e-05
1.67618e-06
-2.79927e-05
-6.32694e-06
8.29223e-08
1.62114e-07
-6.96909e-08
-1.00991e-07
-2.52067e-12
3.43845e-08
-3.0148e-07
-3.14233e-07
9.06649e-08
5.71783e-07
-6.10004e-07
-1.69541e-07
-2.15383e-07
1.48624e-07
7.48578e-08
1.47604e-07
-9.96172e-08
8.33331e-05
-0.00105281
-0.000166991
-0.000131389
-0.00127069
-0.000867509
-7.74904e-05
8.10211e-08
-6.27725e-11
1.94706e-06
-1.71805e-10
1.61576e-09
7.73928e-09
-6.55731e-05
-0.000200087
-5.7617e-06
-2.43073e-05
-2.62055e-06
-2.66813e-06
-2.65913e-06
-0.0114877
-0.0100744
0.00193189
-1.83618e-07
-0.00193172
0.0176814
0.00746612
-1.43256e-07
-6.9971e-08
9.98303e-07
1.78713e-07
6.1973e-06
-9.21521e-06
1.84927e-05
-1.50199e-05
1.41039e-06
5.87017e-06
-1.6645e-06
2.65821e-06
-1.08177e-06
-1.17297e-06
-8.70563e-07
-8.81509e-07
-1.08939e-06
-8.99131e-07
-8.47139e-07
-1.16419e-06
-1.08077e-06
-8.91128e-07
-2.81421e-07
5.01073e-07
-5.29471e-07
-1.04542e-06
2.69265e-07
-3.69212e-08
-7.7469e-07
3.56882e-11
7.74609e-07
-2.69742e-07
1.04512e-06
2.81208e-07
5.29274e-07
-5.01241e-07
1.0255e-06
2.78653e-07
8.91874e-07
1.08076e-06
1.16368e-06
8.47017e-07
8.99267e-07
-1.77244e-07
1.12772e-06
1.07823e-06
1.66406e-06
-2.11701e-07
8.81818e-07
8.704e-07
1.17266e-06
1.08183e-06
8.82581e-07
2.18024e-07
1.93095e-07
7.5144e-08
6.75762e-07
3.15312e-06
-3.47148e-10
3.95676e-07
-6.75268e-07
-7.49954e-08
-1.93054e-07
-2.17476e-07
-1.37806e-06
3.39131e-07
2.93685e-06
-8.49698e-08
9.72073e-06
-9.7221e-06
-1.4642e-09
-2.11663e-05
-8.06407e-07
-4.02438e-05
1.89009e-06
2.79917e-05
2.83046e-05
6.32585e-06
-6.36239e-05
-4.37977e-05
1.6724e-05
-5.20348e-06
-1.09136e-05
-1.54062e-05
8.0098e-07
2.64687e-06
7.87503e-06
1.86624e-05
2.55032e-05
-2.3992e-05
-3.78625e-05
0.00389756
-0.00318312
-0.010491
0.00645881
0.00928855
0.00460067
0.0159572
0.00417579
0.00695777
0.017196
0.00598279
0.0107556
0.0085068
0.00579273
-0.012676
0.00412786
-0.000494563
-0.00149332
0.0144567
-0.00445782
0.00734135
-9.13342e-08
-0.00734202
0.00445816
-0.014456
-0.00579247
0.0126762
-0.0107549
-0.00850632
-0.00598234
-0.0171957
-0.00695714
-0.00417562
0.009825
0.0106271
0.0104911
-0.00928834
-0.00460053
-0.00645895
-0.0172998
-0.00761396
-0.0100744
-0.0139768
-0.00606098
0.00956538
-0.0121943
-0.00150435
0.0181609
-0.0181609
0.0121943
-0.0095654
0.00606048
0.0139758
0.0100745
0.0114885
0.00761356
0.0172992
0.0196842
0.0194313
-0.00342814
0.0176813
0.0066468
0.00746602
0.00562783
0.000137655
1.06649e-06
-0.000137221
-1.0657e-07
0.00752029
-0.00752009
0.000463805
-0.0056279
-0.00746604
-0.00664713
-0.0176815
-0.019432
-0.0196835
-0.0162974
-0.0165605
-0.017866
-0.016354
-0.0166636
-0.0194559
-0.0189002
-0.0168809
-0.00578529
0.00155634
-6.93961e-06
0.0083854
-0.00705231
0.00416467
-0.00306501
0.00175389
-0.00115017
0.000634957
-0.000371349
0.000199196
-0.00010333
5.47105e-05
-2.47938e-05
1.32781e-05
-5.18092e-06
-4.63951e-06
-3.94015e-06
-3.42962e-06
-5.87103e-06
-6.19875e-06
-1.7923e-07
9.21593e-06
-2.93729e-06
-3.39775e-07
1.37817e-06
-2.65844e-06
2.28114e-07
-8.00439e-07
-2.64653e-06
-7.86906e-06
-1.86604e-05
-2.54029e-05
2.40006e-05
3.78881e-05
-0.00389752
0.00318309
0.00103181
0.0028184
-0.000557925
0.00669493
-0.00669483
-0.00281841
-0.00103167
0.00055804
0.00202694
-0.0106273
-0.00982452
0.00930079
-0.0116954
-0.00324174
0.000213925
0.00127053
-0.00241626
0.00238527
0.0030245
-8.51335e-09
-0.00302427
0.00324188
-0.00412774
0.00767917
0.000494103
0.00861973
-0.00862033
-0.00767965
-2.40334e-07
0.00526565
0.00562686
-0.00562718
0.000867242
-0.00526574
0.000274284
2.71229e-07
0.00613534
0.000852064
-0.00671525
0.00192414
-4.37007e-07
-5.93672e-07
-3.08877e-08
0.0068991
-0.00550051
-0.0178199
0.00363921
-0.0145238
0.0160586
-0.0125495
0.00950036
-0.00950067
-0.000874439
-0.00675991
-0.000523639
0.00488357
-0.0030867
-0.000149939
0.0020011
-0.00120216
-4.48099e-05
0.000703828
-0.000403273
-1.32914e-05
0.000213379
-0.000117914
-3.25269e-06
5.61319e-05
-3.04408e-05
-3.73652e-07
1.29167e-05
-6.99897e-06
2.28166e-07
2.65312e-06
7.66823e-07
1.40899e-06
-1.40939e-06
3.68567e-08
1.6984e-07
-4.7745e-07
-4.93835e-07
3.07905e-10
3.15713e-07
-3.15403e-07
-4.00508e-07
2.81928e-10
3.69958e-07
-3.69947e-07
-3.25949e-07
1.41294e-10
8.82208e-07
-8.82638e-07
1.09078e-07
-1.18328e-10
-1.41345e-07
1.41731e-07
-1.00236e-07
5.66709e-07
3.36465e-07
2.69328e-07
9.95938e-08
5.95907e-07
1.85074e-07
-5.89469e-07
-4.63307e-08
6.10168e-07
-5.71582e-07
1.02909e-06
3.0153e-07
3.14473e-07
4.23389e-08
5.6711e-07
6.1849e-08
-4.71867e-07
-4.19035e-08
8.14768e-08
-4.42158e-07
1.21445e-06
-8.61668e-08
-1.65793e-07
-1.92131e-06
-7.05356e-06
-2.34525e-05
-6.66993e-05
-0.000153748
-0.000266532
-0.000420764
-7.72603e-05
0.00837771
0.00706956
0.00672833
0.00938671
-0.00795274
0.00482839
-0.00352076
0.00203856
-0.00131505
0.000738618
-0.00042263
0.000231769
-0.000117513
6.36247e-05
-2.83119e-05
1.54056e-05
-1.41065e-06
1.50213e-05
-1.84939e-05
2.11682e-05
-4.34178e-05
8.28247e-10
4.34144e-05
-8.90169e-05
7.83785e-05
-6.24398e-05
0.000114308
-0.000157289
7.5033e-06
-0.000227765
2.31387e-05
0.000117492
-1.87331e-05
7.12413e-05
8.39784e-05
2.43116e-05
-0.00017815
-0.000196858
9.30635e-05
-1.98173e-05
-4.90718e-05
6.5546e-06
1.96867e-05
-1.18713e-05
1.46258e-06
3.42915e-06
-1.43985e-06
-1.07833e-06
2.11593e-07
-1.21493e-06
-1.8495e-07
-5.95786e-07
-9.9451e-08
-2.69086e-07
-3.36516e-07
-5.66855e-07
9.97644e-08
-1.47819e-07
-1.08931e-07
2.93239e-07
-1.69811e-07
-6.09986e-07
2.90139e-08
4.67372e-08
5.71434e-07
5.895e-07
4.41899e-07
-8.15296e-08
-3.315e-07
3.26099e-07
7.78861e-11
-1.34761e-11
7.66437e-10
3.60186e-09
9.79601e-09
2.262e-08
4.94661e-08
3.89202e-08
3.30726e-08
-8.90357e-08
2.03312e-07
0.00439676
7.78476e-05
-0.00703746
0.00139106
-0.015957
-0.00684595
0.0116952
-0.000213911
-0.00127039
-0.000867408
5.49045e-05
0.000885962
-0.000107416
0.000374236
-0.00252358
-0.00245468
0.0083127
0.0101912
-0.0131089
-1.03107e-05
0.00905927
-0.00764861
0.0108565
-0.000182873
-0.00375203
-0.0119077
-0.0119355
-0.0117162
-0.00689531
-0.00668038
-0.00115074
-0.00226009
-0.0013769
-0.00360263
-0.00151936
-0.000801703
-0.000454652
-0.000188844
-0.000296447
2.07556e-05
-9.13758e-05
0.000241735
-0.00660491
-0.00578864
0.00364508
0.00326218
0.00074301
-0.00520133
-0.000131982
-0.000204521
-0.00238513
0.00241655
-0.00202687
-1.89449e-05
0.00598175
-0.000274713
-0.00194918
0.00149354
-0.00505979
-0.00120273
-0.00485678
-4.50118e-08
2.19371e-07
2.75941e-07
3.06035e-07
-8.6766e-09
-2.63435e-08
-1.53064e-08
-1.23358e-08
-4.52165e-09
-1.79858e-10
-1.16627e-10
-3.26075e-07
3.2587e-07
4.72542e-07
-7.6372e-07
-4.65498e-06
-1.9426e-05
-6.64406e-05
-0.00010133
2.86525e-05
-0.0006094
-0.000216444
-6.64413e-05
-3.0075e-05
1.65548e-05
3.60043e-05
-0.000336478
-0.000306768
0.000178144
0.000156837
5.88624e-05
-0.000261678
0.000495025
0.000159555
-0.000828544
0.00136328
0.000370983
-0.00225535
-0.00036654
-0.00258319
0.0015518
0.000392753
-0.00284542
0.00417242
0.000776194
0.000149612
-0.000151627
-0.000102578
-0.000200182
-0.000962667
0.000565104
0.000169081
-0.00105293
0.00173496
-0.000167027
0.00015727
-0.00158133
-0.00379782
-0.000960059
-0.0014151
0.00759725
-0.00930056
0.0295824
-0.000995655
0.00792883
-0.00208223
-0.00785094
-0.00468727
-0.00134731
-0.00238702
-0.00033095
0.00019085
-0.00159284
-0.00063041
-0.000621143
-0.000216243
-6.52913e-05
-1.64819e-05
-1.71659e-05
-7.17536e-06
7.16929e-06
1.32743e-05
-9.30749e-05
-8.40013e-05
4.90751e-05
4.37928e-05
1.87323e-05
-7.12453e-05
-2.43126e-05
-1.74904e-05
-4.78304e-05
-7.7206e-05
1.19386e-05
6.2338e-05
0.000196842
-2.09782e-05
-2.46795e-05
0.000403254
8.10429e-06
-0.000703941
4.49097e-05
0.00120215
1.16166e-05
-0.00200134
0.000150221
0.00308657
4.62649e-06
-0.00488384
0.000523822
0.00675991
-0.000102664
-0.0101663
0.00196501
0.0136427
0.00310339
0.00084913
-0.000407317
0.000407288
-0.0136431
-0.00196446
0.0101661
-0.000849327
0.0125496
-0.00689905
-0.016059
-1.25145e-07
0.014523
-0.00363925
0.0178209
0.00578578
0.00550057
0.0012026
0.00506004
0.0019489
-0.00192427
-0.00613562
0.00671612
-0.000852055
0.00684616
-0.00598137
-3.78963e-07
1.35236e-08
-8.84054e-09
-9.55039e-10
1.15094e-08
1.98828e-08
0.000874845
-0.00705328
0.00495299
-0.00318174
0.00211882
-0.00211891
-1.97819e-05
0.0012216
2.24426e-05
-0.000770984
-1.97927e-06
0.000402561
7.49969e-06
-0.00024228
3.63559e-07
0.000115015
2.09638e-06
-6.67743e-05
7.42105e-07
2.88352e-05
5.86125e-07
-1.64974e-05
7.6803e-07
6.40638e-06
3.29193e-07
-3.74593e-06
-3.90287e-10
3.74507e-06
-7.66929e-07
-2.65337e-06
-2.28715e-07
6.99819e-06
5.23299e-07
-1.29177e-05
3.74094e-07
3.04406e-05
1.63431e-06
-5.61393e-05
3.25391e-06
0.000117908
4.09441e-06
-0.000213408
1.33113e-05
-7.49745e-06
0.000242267
-3.12987e-09
-0.000115028
6.67744e-05
-2.88379e-05
1.64965e-05
-1.01609e-09
-6.4073e-06
-3.29523e-07
-3.26571e-07
-1.96311e-06
-5.86834e-07
-3.22422e-06
-1.28276e-05
-4.30267e-05
-0.000119827
-0.000263241
-0.000423233
-0.000551986
0.000552024
0.00485664
0.00668057
0.0011506
0.000422701
0.00705318
4.36364e-05
-0.00495317
-0.000139417
0.0031815
4.957e-05
0.000151667
8.82376e-08
0.000139691
2.09726e-08
-8.87009e-09
1.98933e-05
-0.00122165
0.000770972
-0.000402593
1.98122e-06
-1.14357e-08
-1.17771e-08
-3.00185e-09
-3.6408e-07
-1.14403e-09
-7.39823e-07
-1.97774e-09
-2.86053e-10
-7.67623e-07
-2.07766e-10
7.4671e-11
4.77686e-07
-1.69819e-07
1.67541e-07
-2.2694e-07
2.26839e-07
-1.67521e-07
5.63507e-07
-9.89992e-08
2.73775e-07
-5.73364e-07
-8.08666e-08
-4.02114e-08
-5.28945e-07
1.22066e-06
1.62663e-07
5.84806e-07
1.20931e-07
2.54065e-07
1.00883e-06
2.95823e-07
-8.248e-08
-1.66339e-07
-5.02227e-08
7.20173e-11
-1.48144e-10
5.00521e-08
-5.63865e-07
-2.73777e-07
9.87034e-08
-2.19406e-07
8.0662e-08
5.28667e-07
4.00716e-08
-1.15655e-07
4.20217e-08
4.71964e-07
-6.17453e-08
-5.66644e-07
-4.23306e-08
-3.14464e-07
1.69649e-07
1.66217e-07
9.41422e-11
1.27596e-07
2.1901e-07
2.04615e-07
6.90401e-08
3.10467e-07
-1.69653e-07
-9.05668e-08
1.00049e-10
-6.90244e-08
-1.2764e-07
4.94211e-07
-2.05154e-07
3.26054e-07
-3.64322e-10
9.69484e-11
5.77126e-10
7.97769e-09
-1.66589e-08
4.61942e-08
-0.000273753
-4.34721e-05
0.000273862
0.000421035
0.000102472
-0.00838547
7.76861e-05
0.00660495
-0.000776289
-0.00364541
0.000366265
0.00225531
-0.000370887
-0.0013635
-0.00203845
0.000193361
0.00125912
-0.00161821
5.07024e-05
-0.00202989
0.00335783
-0.00417264
5.16602e-05
-0.0049319
0.000367823
0.00352042
-0.00482797
-0.003263
0.00520142
-0.000742732
0.00795236
0.000183322
0.0076488
-0.00905868
1.04699e-05
-0.0108571
-0.00938637
-0.00672894
0.000131801
0.00578804
-0.00706917
-0.00837844
0.00141532
-0.000885959
0.000107294
-0.0267098
-0.000373902
-0.000820627
0.00252325
-0.0290863
0.00245482
-0.0101912
-0.0083131
0.00468684
4.51397e-07
0.000320852
0.00061738
0.0145342
2.26744e-08
0.00986212
-0.00986193
0.000207242
-0.00639495
-5.1467e-05
0.00417295
-0.00335779
0.00493122
-0.000367853
0.0020296
-5.07673e-05
0.00161832
-0.0012591
-0.000193459
0.000728293
-2.29271e-05
0.000540614
-0.000407195
-7.35162e-05
-0.000221619
-6.7851e-05
-1.75475e-05
-3.48805e-06
-3.04916e-06
-3.3946e-06
-9.50471e-07
2.62597e-06
4.30002e-06
-2.2376e-05
-1.96936e-05
1.18708e-05
1.09123e-05
5.20144e-06
-1.6727e-05
-6.55713e-06
-5.3929e-06
-1.46539e-06
-1.46213e-06
3.81256e-07
1.51232e-06
1.5476e-06
-2.61983e-06
2.07119e-07
1.40911e-07
1.03535e-06
1.54412e-06
2.15651e-07
1.09045e-06
-2.66752e-06
1.47661e-06
4.00548e-06
1.21635e-05
3.2528e-05
7.39964e-05
0.000134573
-3.80123e-05
-0.000829499
-0.000500029
-0.000199629
-0.000294656
1.34464e-05
5.12258e-05
0.000119934
-0.00265759
0.00298756
2.57754e-08
0.00177251
-0.00177244
3.02871e-05
0.00106397
-1.91564e-09
0.000590214
-0.0005902
1.04521e-05
-0.000291223
-7.51885e-06
0.00015729
-0.000114317
0.000227732
-2.31357e-05
1.18053e-05
-9.91523e-05
-7.13389e-05
-2.21777e-05
-2.97787e-05
5.70723e-06
5.95199e-06
-7.83876e-05
-1.89306e-06
4.02456e-05
-2.79965e-05
6.24329e-05
-6.32549e-06
2.2715e-06
-7.38078e-06
-5.74535e-06
-9.98333e-07
-1.20793e-06
9.35635e-07
2.04479e-07
1.44133e-07
7.07944e-08
9.06866e-07
-2.56593e-07
3.17102e-07
-1.13843e-09
-3.12238e-07
2.54868e-07
-9.05804e-07
-1.48647e-07
-2.15632e-07
-1.26239e-09
-1.06991e-09
1.67645e-06
8.03322e-07
1.33591e-06
1.07194e-06
5.50715e-06
1.35309e-05
-1.27392e-06
3.80392e-06
1.98196e-05
5.45549e-05
-5.76343e-06
-7.55166e-06
-2.09505e-06
7.54798e-06
2.46785e-05
6.75936e-05
0.000153798
0.00026665
-4.6001e-06
-0.00416505
0.000296188
0.00284518
-0.000392828
-0.00155183
0.000200219
0.000828499
-0.000159536
-0.000495141
-0.000738507
7.35433e-05
0.000407203
-0.000540586
2.29134e-05
-0.000728374
0.000945107
-3.0276e-05
-0.00106392
-5.11904e-05
-1.46586e-08
4.18344e-08
-2.9892e-07
0.00024772
-0.000247323
-0.000320584
-0.000617255
0.0131088
-0.0145341
-0.000284755
-5.49014e-05
-0.000149556
0.000204699
0.000151823
-1.48792e-08
7.75602e-05
-0.000151604
-4.94834e-05
-6.75735e-05
-2.24053e-05
3.28237e-05
2.07404e-08
2.88884e-09
1.67415e-09
-4.30165e-10
-2.35639e-10
1.00829e-11
-1.32944e-11
1.65555e-07
1.92117e-06
7.05346e-06
2.34516e-05
6.66936e-05
-8.14388e-06
-0.00063495
6.55851e-05
0.000336434
-6.23436e-05
0.000306686
7.71836e-05
0.000261656
-5.88623e-05
-0.000156864
-0.000231759
0.000422543
-3.25434e-05
-3.60128e-05
-1.66211e-05
6.63814e-05
0.000188691
0.000454325
0.000263305
0.000119826
4.3037e-05
1.28312e-05
1.94145e-05
4.652e-06
3.22487e-06
5.68776e-07
7.61822e-07
-4.73175e-07
-1.41934e-07
-1.03578e-06
5.18027e-06
1.27392e-06
4.63932e-06
-1.51238e-06
-1.12786e-06
2.66768e-06
8.61843e-08
1.46558e-06
5.39368e-06
1.74923e-05
4.78453e-05
0.000102621
-7.75171e-05
-3.28335e-05
-0.000169114
-0.000625765
-0.000565094
0.000962522
0.00105283
0.00115004
0.00016699
-0.00175379
-1.16396e-05
0.00306482