/*--------------------------------*- C++ -*----------------------------------*\
| =========                 |                                                 |
| \\      /  F ield         | OpenFOAM: The Open Source CFD Toolbox           |
|  \\    /   O peration     | Version:  2306                                  |
|   \\  /    A nd           | Website:  www.openfoam.com                      |
|    \\/     M anipulation  |                                                 |
\*---------------------------------------------------------------------------*/
FoamFile
{
    version     2.0;
    format      ascii;
    arch        "LSB;label=32;scalar=64";
    class       volScalarField;
    location    "0.5";
    object      gradTz;
}
// * * * * * * * * * * * * * * * * * * * * * * * * * * * * * * * * * * * * * //

dimensions      [0 -1 0 1 0 0 0];

internalField   nonuniform List<scalar> 
2658
(
-0.0623605
-0.0580761
-0.030959
-0.0272282
-0.0375903
-0.0382142
-0.0280583
-0.027348
-0.0272086
-0.0381353
-0.0453272
-0.040898
-0.059136
-0.056841
-0.0567292
-0.0581376
-0.0580827
-0.0580323
-0.0565357
-0.0560389
-0.0580944
-0.0523832
-0.0590406
-0.041465
-0.0666226
-0.0581693
-0.0531809
-0.0598562
-0.062636
-0.0537655
-0.0626354
-0.0531808
-0.0581685
-0.0590395
-0.0666221
-0.041464
-0.0487607
-0.0766817
-0.0523825
-0.0580956
-0.0560398
-0.0565357
-0.0580316
-0.0773904
-0.0435547
-0.043125
-0.0453273
-0.0774189
-0.0581384
-0.0567294
-0.0568402
-0.0591368
-0.0531132
-0.0800046
-0.0591945
-0.0567627
-0.0773944
-0.0432863
-0.0421574
-0.0580804
-0.0773952
-0.0567633
-0.0591946
-0.0800044
-0.0464482
-0.0409769
-0.0452285
-0.0370933
-0.0376553
-0.0376544
-0.0274234
-0.0273398
-0.0186568
-0.0190873
-0.0128568
-0.0189641
-0.019035
-0.0128371
-0.0127888
-0.0124577
-0.0190289
-0.0186461
-0.0271996
-0.0281431
-0.0258197
-0.0121961
-0.00498626
-0.00175726
-0.000537608
-0.000144049
-3.41104e-05
-8.89648e-06
-4.14627e-06
-3.78275e-06
-3.07765e-06
-4.73303e-06
-3.00988e-06
-4.15084e-06
-2.99069e-06
-2.96122e-06
-4.06263e-06
-2.97917e-06
-4.28894e-06
-3.49359e-06
-3.00803e-06
-4.24714e-06
-3.37065e-06
-8.45501e-06
-3.31128e-06
-3.79344e-06
-3.39872e-06
-2.84522e-06
-3.62497e-06
-2.84514e-06
-3.39882e-06
-3.79411e-06
-3.00859e-06
-4.24728e-06
-4.28903e-06
-3.49365e-06
-2.9781e-06
-4.06181e-06
-2.9612e-06
-2.99042e-06
-3.96781e-06
-3.9827e-06
-3.78269e-06
-4.73333e-06
-3.00986e-06
-3.07771e-06
-4.24272e-06
-3.09983e-06
-3.6957e-06
-3.11252e-06
-4.01917e-06
-3.50854e-06
-3.62106e-06
-5.5774e-06
-4.19403e-06
-4.19422e-06
-3.62065e-06
-3.50847e-06
-3.4361e-06
-3.334e-06
-4.10536e-06
-3.33275e-06
-4.30928e-06
-5.28516e-06
-3.07469e-06
-3.08855e-06
-2.68225e-06
-4.19155e-06
-5.17306e-06
-2.53068e-06
-3.94271e-06
-3.96563e-06
-3.67195e-06
-3.80259e-06
-3.31993e-06
-3.80939e-06
-3.87829e-06
-3.30794e-06
-3.87022e-06
-3.68414e-06
-3.17348e-06
-3.62922e-06
-3.43629e-06
-3.97118e-06
-7.73814e-06
-1.0794e-05
-2.68572e-05
-6.02915e-05
-0.000125529
-0.000253588
-0.000495994
-0.000936603
-0.00170972
-0.00301246
-0.00511226
-0.00837694
-0.0131584
-0.0199454
-0.0289642
-0.0396599
-0.038195
-0.0374105
-0.0378264
-0.0381346
-0.0375897
-0.0272277
-0.0382146
-0.0452277
-0.0409771
-0.0464482
-0.0408981
-0.0651769
-0.0258196
-0.012196
-0.00498622
-0.00175723
-0.000537593
-0.000144043
-3.4109e-05
-8.89642e-06
-4.14641e-06
-3.41815e-06
-3.93642e-06
-8.75544e-06
-3.99308e-06
-3.99324e-06
-3.93659e-06
-3.41818e-06
-8.75549e-06
-3.53074e-06
-3.98275e-06
-3.968e-06
-4.64922e-06
-3.68426e-06
-4.01984e-06
-3.32477e-06
-3.52921e-06
-4.2466e-06
-9.19622e-06
-8.83726e-06
-9.90968e-06
-8.83679e-06
-4.01986e-06
-3.37061e-06
-3.85421e-06
-8.45467e-06
-3.87605e-06
-3.87615e-06
-3.85433e-06
-4.47456e-06
-3.83997e-06
-3.97202e-06
-3.97212e-06
-8.58269e-06
-3.84007e-06
-3.71558e-06
-2.81341e-06
-2.78659e-06
-2.56729e-06
-3.11352e-06
-2.75153e-06
-2.89429e-06
-5.4833e-06
-8.83651e-06
-6.06865e-06
-6.4388e-06
-3.64026e-06
-2.78849e-06
-3.62511e-06
-5.96329e-06
-1.55569e-05
-3.03725e-05
-3.03727e-05
-2.76286e-05
-6.3509e-05
-5.6479e-05
-0.000131497
-0.000265596
-0.000229831
-0.000515065
-0.000975652
-0.000821818
-0.0017718
-0.00312875
-0.00255778
-0.00529741
-0.0086745
-0.00686834
-0.0136405
-0.0206191
-0.015769
-0.0298454
-0.0424275
-0.0321685
-0.0538231
-0.0394534
-0.0531342
-0.0531339
-0.0598551
-0.0625738
-0.0530468
-0.0486769
-0.0725025
-0.0460468
-0.046047
-0.0464729
-0.0724446
-0.0470177
-0.0470179
-0.0452491
-0.0723305
-0.0589401
-0.0589399
-0.0743655
-0.107619
-0.0743657
-0.0756773
-0.106454
-0.0756958
-0.0882357
-0.0711592
-0.0692841
-0.056543
-0.0652925
-0.0825524
-0.0741011
-0.045249
-0.0435452
-0.0721354
-0.0568774
-0.0757044
-0.106462
-0.0757426
-0.0835737
-0.0772649
-0.078013
-0.0772641
-0.072135
-0.0565429
-0.0692846
-0.0756933
-0.106454
-0.0756766
-0.0652934
-0.0825523
-0.0835725
-0.0757455
-0.10646
-0.0757053
-0.0568771
-0.0652424
-0.0748399
-0.107699
-0.0744356
-0.0592005
-0.0724228
-0.045127
-0.0589796
-0.0609739
-0.0621779
-0.0271254
-0.0128849
-0.00527505
-0.00185799
-0.00056734
-0.000151486
-3.56655e-05
-3.1705e-05
-2.67588e-05
-2.68412e-05
-2.68399e-05
-2.73285e-05
-5.81454e-05
-0.000123461
-0.000243117
-0.000484865
-0.000896596
-0.00166557
-0.00288162
-0.00497113
-0.00800917
-0.0127887
-0.0190345
-0.0281432
-0.027208
-0.0273479
-0.0280579
-0.0273404
-0.0190059
-0.0130512
-0.0190062
-0.0125241
-0.0127657
-0.0125029
-0.00788769
-0.00803682
-0.00516177
-0.00487153
-0.00514974
-0.00800955
-0.00817703
-0.00799465
-0.00793226
-0.00522504
-0.00488907
-0.00487832
-0.00797151
-0.00815836
-0.0125555
-0.0129858
-0.018836
-0.0274894
-0.0273444
-0.0378265
-0.0371394
-0.0431255
-0.0774195
-0.0652429
-0.0589793
-0.0451268
-0.0619493
-0.0391187
-0.0282238
-0.0267112
-0.0127409
-0.00521711
-0.00183787
-0.000561383
-0.000150069
-3.55402e-05
-9.19607e-06
-4.24635e-06
-3.52887e-06
-8.58236e-06
-3.32469e-06
-3.68429e-06
-4.64912e-06
-8.96779e-06
-1.09798e-05
-1.10879e-05
-1.11934e-05
-1.11559e-05
-9.85558e-06
-5.20433e-06
-1.25112e-05
-2.82935e-05
-3.28343e-05
-6.05443e-05
-5.61253e-05
-2.66582e-05
-3.18608e-05
-3.69567e-05
-8.96431e-06
-8.91526e-06
-8.6916e-06
-6.82612e-06
-9.77674e-06
-4.00613e-05
-3.37749e-05
-1.67625e-05
-3.63774e-05
-0.000157984
-0.000150596
-0.000166908
-0.000619204
-0.000580932
-0.000319211
-7.82133e-05
-7.43822e-05
-5.72026e-05
-5.75546e-05
-0.000120881
-0.000120558
-6.71856e-05
-5.79942e-05
-3.23859e-05
-3.66148e-05
-0.000157831
-0.000603975
-0.000603856
-0.00200434
-0.00194696
-0.00201459
-0.00569603
-0.00565256
-0.00349323
-0.00113282
-0.001091
-0.000889402
-0.000887515
-0.00163797
-0.00162948
-0.000979467
-0.000893544
-0.000473987
-0.000273854
-0.000242123
-0.000140213
-0.000240386
-0.000476061
-0.000272718
-0.000240422
-0.000120987
-6.67372e-05
-7.96859e-05
-7.78997e-05
-6.35064e-05
-2.63175e-05
-3.0244e-05
-1.25731e-05
-1.28576e-05
-4.80011e-06
-1.3234e-05
-1.71657e-05
-1.75553e-05
-1.49664e-05
-1.6442e-05
-1.65785e-05
-9.06739e-06
-1.75027e-05
-7.13602e-06
-9.19797e-06
-3.91831e-05
-3.41254e-05
-8.05882e-05
-7.47382e-05
-0.000159479
-0.000608273
-0.00201934
-0.00200959
-0.00578947
-0.00575994
-0.0142714
-0.0141569
-0.0138853
-0.0288473
-0.0306119
-0.0213417
-0.00931781
-0.00911287
-0.00797116
-0.00793191
-0.0125553
-0.0124574
-0.00817698
-0.0079944
-0.00485958
-0.00304761
-0.00287337
-0.00180336
-0.00285409
-0.00488891
-0.00304071
-0.00286331
-0.00163607
-0.000976754
-0.00112287
-0.000319186
-0.000310526
-0.000265582
-0.000115132
-0.000131488
-5.64763e-05
-5.81367e-05
-0.000130428
-0.000262865
-0.000505219
-0.000505217
-0.000440728
-0.000955098
-0.000836934
-0.00172737
-0.001465
-0.00304456
-0.00259763
-0.00514023
-0.00422613
-0.00839873
-0.00694981
-0.0131725
-0.0104732
-0.0198088
-0.0158724
-0.0288838
-0.022096
-0.0389171
-0.0310376
-0.0546313
-0.0471141
-0.0546311
-0.0394532
-0.0538217
-0.0321679
-0.0424271
-0.0223017
-0.0298447
-0.0157686
-0.0206188
-0.0105928
-0.0136402
-0.00686827
-0.00867446
-0.00426528
-0.00529731
-0.00255769
-0.00312871
-0.00147406
-0.00177171
-0.000821783
-0.000975632
-0.000441049
-0.000515038
-0.000229819
-0.000234876
-0.000340401
-8.90922e-05
-2.21046e-05
-6.83019e-06
-5.3134e-06
-1.17977e-05
-4.397e-05
-0.000170803
-0.000616658
-0.00198232
-0.00555073
-0.0133443
-0.0271462
-0.0446987
-0.0592314
-0.0563192
-0.056319
-0.0493499
-0.0611434
-0.0413355
-0.0304334
-0.057576
-0.0416508
-0.0441132
-0.0370726
-0.0377904
-0.0369618
-0.0310373
-0.0389165
-0.0220956
-0.0288837
-0.0258047
-0.0270822
-0.0129214
-0.0104729
-0.0131725
-0.0198082
-0.0158725
-0.0197802
-0.00875758
-0.00694973
-0.00839846
-0.00422605
-0.0051403
-0.00493878
-0.00529874
-0.00187023
-0.000572984
-0.000440713
-0.00095505
-0.0017274
-0.00304445
-0.00259754
-0.00332196
-0.00108806
-0.000590475
-0.000157595
-3.7518e-05
-3.69862e-05
-2.76284e-05
-6.49787e-05
-3.36214e-05
-6.49799e-05
-5.81383e-05
-0.00013043
-0.000116541
-0.000262882
-0.000234883
-0.00031053
-0.000154058
-0.000116534
-0.000138173
-7.79004e-05
-1.71662e-05
-1.28586e-05
-1.25742e-05
-3.02461e-05
-1.3235e-05
-1.55574e-05
-6.0688e-06
-5.96348e-06
-8.43823e-06
-3.62526e-06
-2.78851e-06
-3.63996e-06
-3.97109e-06
-6.43983e-06
-3.98263e-06
-3.11351e-06
-3.59486e-06
-2.75117e-06
-2.78615e-06
-3.11364e-06
-2.56728e-06
-3.32231e-06
-2.85861e-06
-2.90047e-06
-2.85878e-06
-2.60826e-06
-4.1511e-06
-3.3224e-06
-3.71593e-06
-3.5952e-06
-3.31122e-06
-3.11386e-06
-3.98233e-06
-3.79482e-06
-2.88798e-06
-2.68678e-06
-3.40163e-06
-3.30281e-06
-2.95801e-06
-3.61929e-06
-3.49669e-06
-4.34506e-06
-4.61853e-06
-8.25898e-06
-2.90662e-06
-4.61316e-06
-1.00272e-05
-1.01535e-05
-4.64366e-06
-3.79317e-05
-0.000158627
-0.000593001
-0.00194196
-0.00193739
-0.00551176
-0.0134825
-0.0282694
-0.0580019
-0.0543875
-0.0921836
-0.0530466
-0.0625751
-0.0911774
-0.0754459
-0.075444
-0.0911777
-0.0960648
-0.0541761
-0.0768081
-0.070168
-0.0721706
-0.0439527
-0.0575015
-0.0646137
-0.0762526
-0.106866
-0.0766698
-0.0891188
-0.0689522
-0.0822987
-0.0774526
-0.0787161
-0.0796342
-0.0847804
-0.102295
-0.0796368
-0.0960651
-0.0768095
-0.0541757
-0.0466526
-0.0721704
-0.0575011
-0.0439525
-0.0445848
-0.072423
-0.0592018
-0.0744346
-0.107698
-0.074841
-0.0823923
-0.0783419
-0.0787161
-0.0793722
-0.0757048
-0.0466522
-0.0648063
-0.0729122
-0.0818162
-0.0783436
-0.0772025
-0.082392
-0.0763431
-0.0741014
-0.0435455
-0.0619493
-0.0391186
-0.0371392
-0.0405084
-0.030524
-0.0143631
-0.0210276
-0.0190003
-0.0188354
-0.0274895
-0.027199
-0.018646
-0.0190286
-0.0129853
-0.021169
-0.0144524
-0.00581521
-0.00916416
-0.00340343
-0.00109439
-0.000305941
-0.000304947
-0.00047595
-0.00053263
-0.000328179
-0.000235824
-0.000140237
-0.000247589
-0.000486389
-0.000534184
-0.000904629
-0.000872254
-0.000476564
-0.000530713
-0.00163431
-0.00178235
-0.00289614
-0.00281574
-0.00177584
-0.00487144
-0.00516168
-0.00803683
-0.00788755
-0.00514962
-0.0125027
-0.0128566
-0.0190874
-0.0189638
-0.012837
-0.0223734
-0.0308349
-0.0580945
-0.0573641
-0.0580841
-0.040284
-0.0423642
-0.0437022
-0.0308849
-0.0309586
-0.0145523
-0.00586882
-0.00204462
-0.000620168
-0.000165085
-0.000150665
-0.000313413
-0.000276256
-0.000246608
-0.000144749
-0.000246627
-0.000480988
-0.000547462
-0.000901044
-0.000900999
-0.000480998
-0.000562943
-0.000151399
-3.65339e-05
-1.81521e-05
-1.5082e-05
-1.60832e-05
-1.27474e-05
-7.15701e-06
-1.27496e-05
-2.92854e-05
-3.47521e-05
-6.05013e-05
-6.0496e-05
-2.92876e-05
-1.90264e-05
-1.18414e-05
-5.56997e-06
-5.56977e-06
-3.60291e-06
-4.86807e-06
-1.18428e-05
-1.25115e-05
-5.20388e-06
-9.8563e-06
-2.66585e-05
-3.28368e-05
-5.61311e-05
-6.05443e-05
-2.82971e-05
-1.60838e-05
-1.81522e-05
-1.75556e-05
-3.56663e-05
-2.63183e-05
-2.68585e-05
-3.17059e-05
-5.72029e-05
-6.67367e-05
-0.000120883
-0.000140223
-0.00024214
-0.000273868
-0.000474001
-0.000484882
-0.000530753
-0.00087231
-0.000904661
-0.000534233
-0.000476591
-0.00023585
-0.000247592
-0.000140248
-0.000121723
-0.000138429
-0.000243134
-0.000123466
-0.000120563
-5.79963e-05
-6.71869e-05
-5.81487e-05
-3.18622e-05
-2.73288e-05
-2.68405e-05
-3.2387e-05
-5.75566e-05
-2.68413e-05
-2.67592e-05
-1.098e-05
-1.49654e-05
-1.10877e-05
-4.69979e-06
-1.11937e-05
-1.50815e-05
-1.11559e-05
-4.29322e-06
-3.80932e-06
-3.87813e-06
-9.06701e-06
-1.65795e-05
-1.64423e-05
-1.67639e-05
-9.7773e-06
-6.83047e-06
-2.21053e-05
-8.90967e-05
-4.0062e-05
-0.000166933
-0.000340422
-0.00116704
-0.000619276
-0.00201477
-0.00350777
-0.00350766
-0.00116698
-0.000836904
-0.00910846
-0.00910874
-0.00569634
-0.0138856
-0.0201836
-0.0201827
-0.0370116
-0.0370124
-0.0288479
-0.0493511
-0.0611508
-0.0413363
-0.0396617
-0.0271962
-0.0381951
-0.0370728
-0.0435549
-0.0423642
-0.0609742
-0.0621783
-0.0271256
-0.012885
-0.00527512
-0.00185802
-0.000567354
-0.000151489
-0.000115138
-0.000125536
-0.00013858
-0.000240428
-0.000272731
-0.000476073
-0.000538536
-0.000893594
-0.000979488
-0.00162954
-0.00166561
-0.00177594
-0.00281584
-0.00289614
-0.00178242
-0.00163436
-0.00166669
-0.000983844
-0.00164352
-0.00182085
-0.00288433
-0.00288429
-0.00164354
-0.000983826
-0.00166662
-0.00110619
-0.000621493
-0.000166964
-4.10546e-05
-1.016e-05
-1.90297e-05
-9.19772e-06
-3.93987e-06
-2.53362e-06
-3.61848e-06
-4.0184e-06
-3.11256e-06
-3.69565e-06
-4.61813e-06
-3.09925e-06
-4.24255e-06
-3.31928e-06
-3.80239e-06
-8.25865e-06
-3.67162e-06
-3.96549e-06
-7.13504e-06
-8.96433e-06
-8.91476e-06
-8.69151e-06
-3.17353e-06
-3.68422e-06
-8.96799e-06
-3.87e-06
-3.30808e-06
-4.27081e-06
-1.07946e-05
-4.80042e-06
-7.73808e-06
-3.62906e-06
-3.43592e-06
-6.82559e-06
-3.638e-05
-3.37777e-05
-7.82221e-05
-6.02951e-05
-7.43884e-05
-0.000120993
-0.000158
-0.000150623
-0.000319242
-0.000253608
-0.000496019
-0.000532654
-0.000889453
-0.000976782
-0.00163614
-0.00163802
-0.00180345
-0.00287348
-0.00304759
-0.0048598
-0.00497123
-0.00288175
-0.0034036
-0.00339018
-0.00286346
-0.00304084
-0.00285423
-0.00183789
-0.000561396
-0.000150073
-3.55408e-05
-7.96867e-05
-0.00031919
-0.00112288
-0.00108807
-0.00332199
-0.00344027
-0.00344024
-0.00909692
-0.00815804
-0.0125037
-0.0128488
-0.0205673
-0.0185994
-0.0273532
-0.0271956
-0.0212204
-0.00937692
-0.00354368
-0.00115648
-0.000328968
-8.22904e-05
-6.85289e-05
-0.000124618
-0.000124239
-0.000124234
-0.00012463
-6.85291e-05
-8.22916e-05
-0.000328972
-0.000276268
-0.000486425
-0.000313438
-7.91403e-05
-3.91879e-05
-0.000165097
-0.000620212
-0.00110623
-0.00116673
-0.000328211
-0.000305973
-0.000304975
-0.000475977
-0.000603907
-0.000581013
-0.00113294
-0.000936669
-0.00170979
-0.00178363
-0.00301262
-0.00511239
-0.00516718
-0.00837744
-0.0131587
-0.0128494
-0.019001
-0.0185996
-0.0273538
-0.0289647
-0.0223021
-0.019946
-0.010593
-0.0213428
-0.00931832
-0.0034935
-0.00194724
-0.00200455
-0.00576055
-0.00565346
-0.0142727
-0.0141587
-0.0304352
-0.0306113
-0.0575788
-0.0416511
-0.0487611
-0.0766836
-0.0689528
-0.0766692
-0.106865
-0.0762532
-0.064614
-0.0773913
-0.0441142
-0.0402848
-0.0374115
-0.0267114
-0.012741
-0.00521718
-0.00551585
-0.0134747
-0.0205674
-0.0197803
-0.00875763
-0.00909698
-0.00937698
-0.00520916
-0.00183781
-0.00354371
-0.00115649
-0.00305533
-0.00496794
-0.00488923
-0.00525948
-0.00800458
-0.00800452
-0.00488925
-0.00305526
-0.00496781
-0.00342147
-0.00361304
-0.00194469
-0.00116667
-0.000579882
-0.00970194
-0.00566419
-0.00918988
-0.0127655
-0.0125241
-0.00818935
-0.0127116
-0.026652
-0.060906
-0.056891
-0.0464731
-0.0611514
-0.0377905
-0.0369621
-0.0648069
-0.0486773
-0.0757043
-0.0729123
-0.0818159
-0.082298
-0.0701701
-0.089119
-0.0774531
-0.0772042
-0.0797936
-0.065177
-0.0432861
-0.0404835
-0.0307176
-0.0211905
-0.0186567
-0.0404831
-0.0580761
-0.0623623
-0.0567522
-0.05745
-0.0580806
-0.0581299
-0.037093
-0.0144981
-0.00585976
-0.00204393
-0.00342152
-0.00204468
-0.00586873
-0.00918996
-0.00818946
-0.00970214
-0.00361315
-0.00201947
-0.00060833
-0.000159497
-3.69593e-05
-3.66159e-05
-0.000157843
-0.000604017
-0.00109111
-0.000887557
-0.00200974
-0.00578984
-0.00911354
-0.012504
-0.0210284
-0.0211692
-0.00916476
-0.00581539
-0.0144529
-0.0143641
-0.0305254
-0.057366
-0.0405081
-0.0308362
-0.0580949
-0.0437029
-0.0223736
-0.0211908
-0.0145524
-0.0142498
-0.0308854
-0.00566484
-0.00109447
-0.000896645
-7.47458e-05
-8.05975e-05
-1.75039e-05
-3.41312e-05
-0.00015069
-0.000579982
-0.00194514
-0.0212204
-0.0142477
-0.00426542
-0.00147411
-0.000441076
-0.000240395
-7.91344e-05
-0.000121717
-0.000138419
-2.68659e-06
-2.88796e-06
-3.79484e-06
-3.6191e-06
-3.02956e-06
-2.95683e-06
-3.30238e-06
-3.40195e-06
-2.60886e-06
-4.34495e-06
-3.4964e-06
-5.57743e-06
-5.17912e-06
-3.60283e-06
-4.86823e-06
-3.4369e-06
-3.61779e-06
-0.00338986
-0.00487814
-0.00516702
-0.0273435
-0.0445846
-0.0611512
-0.0763401
-3.53046e-06
-2.49426e-06
-0.001465
-0.00171574
-0.000518103
-0.0122222
-0.00178352
-0.00522483
-0.000138571
-0.000538513
-4.27093e-06
-4.69966e-06
-4.29284e-06
-0.0711591
-0.0882359
-0.0762977
-0.0769864
-0.0762979
-0.0531129
-0.056753
7.13438e-06
9.19712e-06
3.9182e-05
3.28337e-05
2.6657e-05
2.82931e-05
6.0544e-05
5.6122e-05
3.18584e-05
2.73272e-05
1.11554e-05
4.29287e-06
3.80295e-06
3.32058e-06
3.80975e-06
3.87849e-06
3.3088e-06
3.87049e-06
3.68482e-06
3.17453e-06
3.63004e-06
3.4382e-06
3.97154e-06
4.80023e-06
6.4397e-06
3.64059e-06
2.78876e-06
3.98238e-06
3.62492e-06
2.49471e-06
3.62487e-06
2.78836e-06
3.64036e-06
3.97135e-06
6.43939e-06
4.8e-06
1.07938e-05
7.73714e-06
3.43773e-06
3.62949e-06
3.1742e-06
3.68462e-06
3.87021e-06
8.96779e-06
1.10869e-05
1.11928e-05
1.11552e-05
9.06637e-06
3.8783e-06
3.80933e-06
3.32034e-06
3.80299e-06
3.67343e-06
8.25831e-06
3.96549e-06
4.8679e-06
1.18418e-05
1.27488e-05
7.15605e-06
5.56959e-06
1.18402e-05
4.86754e-06
3.965e-06
8.25855e-06
9.85507e-06
5.20338e-06
1.25103e-05
1.60845e-05
2.92872e-05
2.92848e-05
3.47503e-05
6.04925e-05
6.85262e-05
0.000124613
0.000140232
0.000121714
0.000123456
0.000138412
0.000243105
0.000242114
0.000120553
6.71842e-05
5.79929e-05
5.81432e-05
3.41078e-05
0.000144039
0.000537582
0.0017572
0.00498614
0.0121959
0.0258194
0.0651769
0.072135
0.0568772
0.0757058
0.0652423
0.0748402
0.107698
0.0744347
0.0762524
0.106867
0.0766686
0.0689524
0.0891183
0.0768079
0.0701685
0.0466523
0.0648064
0.054176
0.0960646
0.0911768
0.0754456
0.102295
0.0754431
0.091177
0.0960641
0.0768086
0.0701687
0.0689525
0.0891184
0.0766686
0.106864
0.0762523
0.074435
0.0592008
0.0589798
0.0568771
0.0652425
0.0748403
0.0757058
0.10646
0.0757451
0.0882358
0.0756928
0.106455
0.0756769
0.0743651
0.0652931
0.05894
0.0589401
0.0743654
0.0756773
0.106454
0.0756954
0.0882353
0.0711586
0.0757427
0.106461
0.0568403
0.0591353
0.0800042
0.0531121
0.0591945
0.0567523
0.0567628
0.0580802
0.0581294
0.0580802
0.0421573
0.0432862
0.0432863
0.077394
0.0567625
0.0567514
0.0591945
0.0531136
0.0591362
0.0568395
0.0567291
0.058137
0.0580819
0.0580318
0.0565351
0.0560385
0.0580937
0.0523834
0.0590391
0.0766827
0.0487609
0.039661
0.0289644
0.0199461
0.0131584
0.00837741
0.00511234
0.00301262
0.00170975
0.000936647
0.000496003
0.000253599
0.000125531
6.0294e-05
2.68573e-05
2.67585e-05
2.68405e-05
2.68395e-05
2.73277e-05
2.66569e-05
3.28345e-05
2.82964e-05
1.25103e-05
5.20338e-06
9.85535e-06
4.29283e-06
8.89607e-06
3.41094e-05
0.000144045
0.000537595
0.00175723
0.0049862
0.0121959
0.0258195
0.0651767
0.072135
0.0435454
0.0452489
0.0619493
0.0470181
0.0470178
0.045249
0.0435454
0.0619493
0.0451269
0.0589791
0.0592011
0.0646136
0.0575007
0.0721705
0.0439525
0.0445847
0.072423
0.0609739
0.062178
0.0580017
0.0621779
0.0721704
0.0466521
0.0486767
0.0648063
0.0530467
0.0530467
0.0486767
0.0725026
0.0460473
0.046473
0.0464728
0.0611512
0.0460468
0.072912
0.0793727
0.0787155
0.0774519
0.0822985
0.0796342
0.0847804
0.0921831
0.0543874
0.0394529
0.0666221
0.0581683
0.0531802
0.0626359
0.0531336
0.0546307
0.0389164
0.0389161
0.0220957
0.0298446
0.0157683
0.0206187
0.0136402
0.00686823
0.00867439
0.00529729
0.00255769
0.00312871
0.00177175
0.000821783
0.000975638
0.000515053
0.000229821
0.000265585
0.000131491
5.64751e-05
6.35062e-05
3.02445e-05
1.25735e-05
1.28578e-05
6.06886e-06
5.96301e-06
5.96287e-06
3.98226e-06
3.1135e-06
3.87612e-06
3.8542e-06
4.47402e-06
3.8399e-06
3.83972e-06
3.97175e-06
4.64299e-06
3.99306e-06
3.99288e-06
3.93595e-06
4.61219e-06
4.19345e-06
4.19342e-06
3.61985e-06
4.30817e-06
3.33246e-06
3.33398e-06
3.61811e-06
4.01843e-06
3.11335e-06
3.69685e-06
3.10038e-06
4.24364e-06
3.0785e-06
3.78265e-06
4.14606e-06
3.49609e-06
4.34514e-06
4.61921e-06
3.30213e-06
3.40173e-06
3.01063e-06
4.15336e-06
2.99159e-06
3.96779e-06
4.24602e-06
3.53047e-06
3.98246e-06
4.73214e-06
9.19615e-06
8.83687e-06
3.56653e-05
0.000151485
0.000567342
0.00185801
0.00527507
0.0128849
0.0271254
0.027196
0.0381951
0.0374109
0.0378263
0.0381345
0.0281431
0.0190343
0.0127886
0.00800921
0.00497111
0.00288167
0.00166556
0.000896615
0.000484858
0.000243121
0.00012346
5.81468e-05
3.186e-05
5.61262e-05
6.05404e-05
6.04999e-05
0.000124227
0.000144738
0.000124235
0.000246598
0.000247579
0.000235825
0.000476551
0.000486385
0.00053417
0.000872237
0.000530694
0.00048485
0.000273848
0.000473968
0.000476044
0.000538487
0.00088748
0.000889359
0.000475948
0.000272716
0.000240377
0.00014021
0.000120875
5.75523e-05
3.23848e-05
2.68389e-05
1.50806e-05
1.11925e-05
9.06638e-06
4.73314e-06
3.07826e-06
4.24398e-06
3.10049e-06
3.69757e-06
3.11326e-06
4.01909e-06
3.61684e-06
3.43712e-06
3.62017e-06
3.50784e-06
5.57672e-06
3.49651e-06
3.41812e-06
4.14624e-06
4.34501e-06
3.78273e-06
3.98298e-06
3.53078e-06
8.75521e-06
3.93606e-06
1.00266e-05
3.65328e-05
0.000151395
0.000562935
0.00183778
0.00520913
0.0127115
0.0266518
0.0609059
0.0723306
0.0780126
0.0772642
0.0763409
0.0823915
0.0772055
0.107698
0.0818153
0.0575019
0.0439526
0.0445843
0.0611511
0.0377904
0.0370726
0.0435549
0.043125
0.0453272
0.0464482
0.0409772
0.0452279
0.0382143
0.0272279
0.0280578
0.0273479
0.0375896
0.0272082
0.030835
0.0580947
0.0573651
0.0575786
0.0611506
0.0493507
0.0288475
0.0306134
0.0413361
0.0304358
0.0142717
0.0141577
0.0138864
0.0056964
0.00565312
0.00931846
0.0213421
0.0210278
0.0273537
0.0274891
0.0188355
0.0190285
0.0186459
0.0271991
0.027344
0.0267112
0.0609739
0.0724227
0.0451269
0.0741014
0.0783436
0.0729121
0.075705
0.0541757
0.0625732
0.0598557
0.0563181
0.0592311
0.0446986
0.0271459
0.0133441
0.00555084
0.00198239
0.000616684
0.000170805
4.397e-05
1.17972e-05
5.31285e-06
6.82996e-06
6.82984e-06
9.77709e-06
4.00621e-05
0.000166924
0.000619263
0.00201477
0.00194713
0.00349353
0.00576031
0.00200447
0.000603884
0.000580971
0.00113293
0.00109104
0.0016361
0.00163797
0.000887524
0.000893555
0.000979457
0.00162948
0.00287339
0.00304755
0.00485963
0.00799438
0.008177
0.0124576
0.0129853
0.0125553
0.00793201
0.00815833
0.0125039
0.0190003
0.0185995
0.0205672
0.0127408
0.00521708
0.00522488
0.00488894
0.00285413
0.00304074
0.00487826
0.00797123
0.00516716
0.00911316
0.0143635
0.0305243
0.040284
0.0441137
0.0773906
0.0646136
0.0416509
0.0405081
0.077419
0.0437025
0.0623607
0.0580762
0.030959
0.0308891
0.0223725
0.0211686
0.0144523
0.00581518
0.00578956
0.00200963
0.000603981
0.000157832
0.000157991
0.000150603
0.000319236
0.000304954
0.000475954
0.000476055
0.000240384
0.000242124
0.000273854
0.000473987
0.000538514
0.000561382
0.00183786
0.0018034
0.00112286
0.000976752
0.000889406
0.000532632
0.00108806
0.00177181
0.00147411
0.00312877
0.0025578
0.00529755
0.00426536
0.00867461
0.00686852
0.0136407
0.010593
0.0206189
0.0157688
0.0298452
0.022302
0.0424269
0.0321681
0.053822
0.0414642
0.0310375
0.0369618
0.0369618
0.053822
0.0321681
0.0424269
0.0310374
0.0546311
0.0394529
0.0531338
0.0471139
0.0626362
0.0531803
0.0581685
0.0590393
0.0666224
0.0598556
0.0625749
0.0757048
0.0796353
0.0787171
0.082298
0.0774498
0.081815
0.0783418
0.0797936
0.0724446
0.0568909
0.0282237
0.0282692
0.0270821
0.0220958
0.0288832
0.0198087
0.0131725
0.00839885
0.00839852
0.00422615
0.00514028
0.00259754
0.0030445
0.00146501
0.00172739
0.000836925
0.000955087
0.000440717
0.000505223
0.000234883
0.000262872
0.000116537
0.000130427
5.81356e-05
6.49785e-05
2.76286e-05
3.03725e-05
1.32343e-05
1.55572e-05
8.4379e-06
1.5557e-05
6.06849e-06
1.28575e-05
1.25734e-05
3.02455e-05
2.63183e-05
6.3508e-05
5.64781e-05
0.000131494
0.000115136
0.000265589
0.000229823
0.000515059
0.000441063
0.00097566
0.000821814
0.000836941
0.000955091
0.000518113
0.000505218
0.000262879
0.000130427
6.49796e-05
3.36216e-05
3.03734e-05
1.32347e-05
1.71657e-05
7.78992e-05
5.81374e-05
8.90954e-05
0.000340427
0.00116708
0.00350791
0.00910892
0.0201833
0.0370117
0.0370113
0.0563191
0.0493508
0.0288469
0.0201828
0.0288836
0.0158723
0.0198082
0.0104728
0.0131725
0.00694973
0.00875752
0.0129214
0.010473
0.0122222
0.00529874
0.00422619
0.00514026
0.00304461
0.0017274
0.00146502
0.00187023
0.00171578
0.000572985
0.000440722
0.000154058
0.000116538
0.00013817
3.69859e-05
2.76283e-05
8.83656e-06
5.48293e-06
3.87613e-06
3.11348e-06
3.40017e-06
2.84642e-06
2.84621e-06
3.39998e-06
3.79451e-06
3.31134e-06
3.00883e-06
4.24742e-06
4.01971e-06
3.32462e-06
3.68428e-06
4.64964e-06
2.96167e-06
4.06356e-06
2.97982e-06
3.49575e-06
4.28901e-06
3.11379e-06
2.56581e-06
2.7861e-06
2.7511e-06
2.89448e-06
3.62792e-06
2.75092e-06
3.79531e-06
3.00942e-06
3.31141e-06
3.37084e-06
4.01973e-06
3.6844e-06
3.32487e-06
3.52908e-06
4.24627e-06
3.96788e-06
2.99108e-06
4.15199e-06
3.01084e-06
3.40161e-06
2.85796e-06
2.78585e-06
2.81309e-06
3.59494e-06
3.37065e-06
8.4546e-06
3.71554e-06
3.32239e-06
2.85842e-06
2.60856e-06
2.90013e-06
3.71539e-06
3.59483e-06
3.85417e-06
8.45484e-06
1.71659e-05
3.75176e-05
0.000157594
0.00059047
0.00193737
0.00551173
0.0134824
0.0197802
0.0158727
0.0197801
0.0271254
0.022302
0.0396606
0.0271956
0.0273533
0.0185993
0.0188351
0.0129852
0.0124573
0.00817671
0.00799423
0.00800902
0.00514955
0.00487132
0.00496777
0.00516157
0.00788733
0.0125024
0.0127653
0.0128563
0.0189634
0.0128366
0.0127885
0.0190343
0.0190281
0.027199
0.018646
0.0281426
0.0272085
0.0273475
0.0280576
0.0272276
0.0375897
0.0381347
0.0378259
0.0273438
0.0274891
0.0374106
0.0381946
0.0441137
0.0370725
0.0435548
0.0423641
0.0431251
0.0371392
0.045327
0.0408979
0.0464482
0.0452283
0.0409766
0.0580761
0.0574493
0.0404832
0.0370931
0.0376545
0.0274235
0.0273398
0.02734
0.0186563
0.0190871
0.0128563
0.0127654
0.0125026
0.0189634
0.0128369
0.00788752
0.00516172
0.00496787
0.00487142
0.00514972
0.00281578
0.00178239
0.00166665
0.0016343
0.00177588
0.00201938
0.00060829
0.000159486
3.69565e-05
3.66153e-05
3.63784e-05
3.37774e-05
7.82209e-05
7.4385e-05
0.000120989
0.00012088
5.75548e-05
5.79943e-05
6.7184e-05
0.000120558
0.000140216
0.000150068
3.55398e-05
3.2385e-05
1.7555e-05
1.4966e-05
1.09791e-05
4.27066e-06
8.69103e-06
6.82566e-06
1.67629e-05
1.64413e-05
8.91435e-06
3.30909e-06
4.69947e-06
1.65783e-05
7.47399e-05
0.000305951
0.00109441
0.00340345
0.00916428
0.00970207
0.0142496
0.0145522
0.00586837
0.00566447
0.00361307
0.00342135
0.00918967
0.00803665
0.00800437
0.00525946
0.00488917
0.00488919
0.00305525
0.00288427
0.00182077
0.00164349
0.00164348
0.000983817
0.000904622
0.000534196
0.000486405
0.000476565
0.000872287
0.00053072
0.0011667
0.00194503
0.00204462
0.000620177
0.000579832
0.000328192
0.000313416
0.000247581
0.000140239
0.000124625
0.000121715
0.000235836
0.00013842
8.05903e-05
0.000150678
0.000165093
3.91852e-05
3.41251e-05
1.75023e-05
8.96334e-06
7.13499e-06
9.19731e-06
3.94014e-06
2.5332e-06
3.07423e-06
2.68189e-06
3.08847e-06
2.53132e-06
3.94272e-06
3.60225e-06
5.17308e-06
1.01593e-05
4.10531e-05
7.91378e-05
6.85258e-05
8.22893e-05
7.96851e-05
6.67377e-05
5.72022e-05
3.17044e-05
0.000319184
0.000272724
0.000240421
0.00013857
0.000310527
0.000234881
0.000310526
0.00108806
0.00332196
0.005275
0.0128848
0.0105928
0.0199452
0.0128488
0.0125036
0.00815806
0.00793169
0.00522471
0.00485951
0.00304746
0.00287329
0.00288155
0.00177582
0.00163426
0.00166661
0.00178231
0.00281569
0.00289606
0.00305524
0.00288423
0.00342136
0.00585952
0.0144978
0.0307173
0.0211898
0.0211903
0.0404823
0.0370931
0.0382139
0.0376547
0.0391186
0.0377904
0.0205672
0.0267112
0.0127408
0.0134747
0.00909693
0.00875761
0.00694981
0.00332198
0.00259763
0.00344023
0.00551582
0.00194194
0.000592991
0.000158623
3.7931e-05
1.01535e-05
9.90967e-06
8.83724e-06
3.56652e-05
0.000151484
0.000567336
0.00185798
0.00147406
0.00301243
0.00178353
0.00163605
0.000976723
0.00163793
0.00180334
0.00162944
0.000979429
0.000893516
0.000896564
0.00166552
0.00109432
0.00109093
0.0011328
0.00201468
0.00569615
0.0138854
0.00910845
0.00350772
0.00116703
0.000340414
0.000619249
0.000166921
8.90941e-05
2.21042e-05
4.00587e-05
9.77648e-06
6.82649e-06
1.67616e-05
2.68574e-05
3.1704e-05
2.67581e-05
1.49652e-05
1.10872e-05
4.69945e-06
9.1963e-06
3.55392e-05
0.000150066
0.000561373
0.00183784
0.00521705
0.00909687
0.00344022
0.00304065
0.00286322
0.00285401
0.00488878
0.00487808
0.00511218
0.00516685
0.00837697
0.00426526
0.0131583
0.00931759
0.0213411
0.028964
0.0413366
0.0487608
0.0416508
0.0580952
0.0523818
0.0766823
0.0611452
0.0575757
0.0560381
0.0565354
0.0773904
0.0580316
0.058084
0.0581382
0.0774188
0.0567293
0.0580942
0.057364
0.0402847
0.0304338
0.0306125
0.014271
0.0141573
0.00575974
0.00565258
0.00349315
0.00338969
0.00911269
0.00797097
0.0125552
0.0210271
0.0190001
0.0305234
0.0143629
0.0057892
0.00200949
0.00200425
0.00194694
0.000603811
0.000532612
0.000495993
0.000253591
0.000138566
0.000120987
6.67349e-05
5.72003e-05
6.02912e-05
2.63173e-05
0.000125529
0.000115133
7.82151e-05
0.000319206
0.000580934
0.000304926
0.000240411
0.000157978
0.000150598
3.63779e-05
3.37742e-05
8.69164e-06
4.27086e-06
1.0794e-05
7.73836e-06
4.29045e-06
2.97957e-06
4.06421e-06
2.96234e-06
4.64987e-06
8.9681e-06
1.09794e-05
1.64407e-05
2.68402e-05
7.43775e-05
7.47322e-05
0.000305917
0.000603933
0.000157819
3.66118e-05
8.91469e-06
1.65767e-05
3.6954e-05
0.000159471
0.000608249
0.00201926
0.00581497
0.0144521
0.0308345
0.0405085
0.0437027
0.0309583
0.0145516
0.00918971
0.0125239
0.0125239
0.0130509
0.0190054
0.0190867
0.0186564
0.0212202
0.0212202
0.0391186
0.0371393
0.00937685
0.00818913
0.00937682
0.0081891
0.00803659
0.00800436
0.00354363
0.00354367
0.00115647
0.00115647