/*--------------------------------*- C++ -*----------------------------------*\
| =========                 |                                                 |
| \\      /  F ield         | OpenFOAM: The Open Source CFD Toolbox           |
|  \\    /   O peration     | Version:  2306                                  |
|   \\  /    A nd           | Website:  www.openfoam.com                      |
|    \\/     M anipulation  |                                                 |
\*---------------------------------------------------------------------------*/
FoamFile
{
    version     2.0;
    format      ascii;
    arch        "LSB;label=32;scalar=64";
    class       volScalarField;
    location    "0.5";
    object      gradTx;
}
// * * * * * * * * * * * * * * * * * * * * * * * * * * * * * * * * * * * * * //

dimensions      [0 -1 0 1 0 0 0];

internalField   nonuniform List<scalar> 
2658
(
0.00804769
0.0120373
0.00372195
0.000165152
-0.0110083
-0.00923515
0.00772192
0.00770366
-1.36523e-05
0.0130618
-0.0101993
-0.00853094
0.0067038
0.00743779
0.0055341
-0.000120537
-0.000210437
-0.000322187
-0.00595213
-0.00802589
-0.00811112
-0.0187956
-0.021601
0.015384
-0.00615214
-0.00892961
-0.0191222
-0.00241071
-0.0139806
-0.015592
-0.0139804
-0.0191225
-0.00892991
-0.0216019
-0.00615157
0.0153839
-0.00613825
0.00370317
-0.0187931
-0.00811339
-0.00802595
-0.0059518
-0.000323449
0.000622104
-0.00794941
0.00745597
-0.0101991
-0.000477245
-0.000122392
0.00553403
0.00743773
0.00670328
0.0178805
-0.00349919
0.0195867
0.0163643
-0.0080187
-0.000235903
-0.0268638
0.0163994
-0.00801814
0.0163646
0.0195865
-0.00349851
0.00245543
-0.0290781
0.00237266
-0.000898826
-0.00695777
-0.00695854
0.000137191
0.00546705
-0.000798204
-0.00471537
0.000340572
-0.00502716
0.00633864
3.943e-05
-0.00419059
0.00459395
-0.0073421
-0.000268507
0.00990201
-0.00908185
-8.15125e-05
-5.16154e-05
1.1229e-05
1.20751e-05
5.08022e-06
1.55056e-06
3.93845e-07
-1.66663e-07
4.11413e-08
-1.00588e-06
5.02475e-07
-2.06022e-07
-6.3383e-07
-5.91819e-09
6.02909e-07
-5.26062e-07
2.48958e-07
6.81173e-07
9.29079e-07
3.75791e-07
4.16613e-07
-1.11537e-06
-1.0693e-07
-5.221e-08
-1.24527e-07
2.7249e-07
5.48538e-07
1.94108e-07
4.02406e-07
1.94008e-07
5.48463e-07
2.72524e-07
4.16957e-07
-1.11563e-06
9.29441e-07
3.76246e-07
6.80925e-07
2.48465e-07
-5.26147e-07
6.02883e-07
-1.26084e-06
1.17986e-06
-1.00633e-06
-2.06306e-07
-6.33634e-07
5.0219e-07
-2.82356e-07
-7.20727e-07
-3.96144e-07
-3.81325e-07
-3.11719e-07
-6.87011e-08
-2.68543e-07
-1.70429e-06
7.55446e-07
7.55312e-07
-2.68677e-07
-6.91067e-08
1.3604e-07
-3.18407e-07
-3.4693e-07
-3.17835e-07
1.15982e-08
-8.96875e-08
-6.78493e-07
-7.03995e-07
-5.53975e-07
-6.97902e-07
-7.0674e-07
-7.17563e-07
-7.35801e-07
-1.16886e-06
-9.55747e-07
-4.49228e-07
-5.73127e-07
-4.59613e-07
3.78599e-08
-1.70376e-08
-1.0663e-07
3.51124e-07
5.15194e-07
3.78399e-07
8.51527e-07
1.29603e-06
-2.26961e-07
2.46844e-06
-8.1755e-06
1.88291e-05
-3.59575e-05
7.93279e-05
-0.000143158
0.000293064
-0.000500268
0.000944934
-0.0015189
0.00264525
-0.00397019
0.00641165
-0.00887832
0.0136578
-0.013487
0.0143547
-0.0148178
0.0130614
-0.0110089
0.000165086
-0.00923459
0.00237199
-0.0290777
0.00245525
-0.00853132
0.00387914
-8.15794e-05
-5.15803e-05
1.12079e-05
1.20684e-05
5.08505e-06
1.5526e-06
3.94116e-07
-1.6682e-07
4.09502e-08
3.34411e-08
-3.99156e-07
-1.6385e-07
3.69332e-07
3.69369e-07
-3.99237e-07
3.35746e-08
-1.63363e-07
1.90855e-08
1.1795e-06
-1.261e-06
1.03703e-07
9.19945e-07
-3.92337e-08
-9.12911e-08
-1.22836e-07
-2.97184e-08
-6.4084e-08
8.32883e-08
1.12136e-07
8.3287e-08
-3.94919e-08
-1.06715e-07
-5.52971e-07
-5.1836e-08
1.00449e-07
1.00589e-07
-5.53108e-07
-1.3092e-08
3.22518e-07
-4.90627e-07
-4.91135e-07
-8.33286e-09
3.22976e-07
-1.16883e-08
-4.81327e-08
-6.2688e-08
-6.51882e-08
3.04602e-07
-5.22394e-08
1.17522e-08
-4.12966e-07
-2.33975e-07
-2.65002e-07
7.73648e-07
5.11218e-07
9.34438e-07
6.70369e-07
-2.67134e-06
3.57224e-06
-9.75354e-06
-9.75311e-06
1.81075e-07
-1.67241e-05
5.88251e-07
3.45086e-05
-6.86819e-05
9.64145e-07
0.000136025
-0.000254843
-1.27114e-07
0.00047006
-0.000827651
-9.13393e-06
0.0014145
-0.00231406
-4.63051e-05
0.00369703
-0.00548847
-0.000129389
0.00856288
-0.0106925
-0.000655405
0.0200198
0.00342239
0.0259308
0.0259306
-0.00241017
0.0067364
-0.00205716
0.00887669
0.000619003
-0.00527203
-0.0052719
0.00608002
-0.000200797
-0.006895
-0.00689483
0.00193064
-0.00240885
-0.0105367
-0.0105368
0.00431171
0.0160048
0.00431181
0.00651772
0.0175683
0.00771082
0.0101601
0.0115688
-0.0184377
-0.0106504
0.00926287
0.00710718
-7.52339e-05
0.00193076
-0.00110242
-0.00317231
0.0124362
-0.00963251
0.00608773
0.0140552
0.00806103
-0.0044164
-0.00584405
-0.00441632
-0.00317277
-0.0106503
-0.0184381
0.0077108
0.0175685
0.00651799
0.00926283
0.00710716
0.00806146
0.0140533
0.0060862
-0.00963294
0.0124357
0.00147786
0.0121163
-0.0002364
-0.0124712
0.0182079
-0.000191861
-0.00306728
-0.0185243
-0.000194772
-0.00214139
0.000173561
0.000110841
3.85611e-05
1.18427e-05
3.16869e-06
6.87261e-07
9.89428e-08
-4.68098e-07
8.85005e-06
-9.88406e-06
9.52243e-06
-9.33919e-06
1.7507e-05
-4.08418e-05
7.58903e-05
-0.000159212
0.000284894
-0.000545434
0.000929854
-0.00162813
0.00262468
-0.00419024
0.00633828
-0.00908158
-1.35467e-05
0.00770367
0.00772089
0.00546805
-0.00344854
0.00036772
-0.0034479
0.00240807
0.00339202
0.00338659
-0.00207544
-0.00198909
0.000177144
0.00126939
4.44101e-05
0.00262502
-0.000111319
-0.00304952
0.00293612
-1.29265e-05
-0.00179243
0.0016505
-0.00276587
1.08464e-05
-0.00461911
-2.7069e-05
0.00707967
-0.00996602
-4.87738e-05
-0.0148179
-0.000658865
0.00745609
-0.000477228
0.00147822
-0.0185245
-0.00306705
0.000472482
-0.000348788
-0.000111198
-9.62995e-05
-4.95255e-05
-2.13774e-05
-8.58691e-06
-3.17219e-06
-1.05127e-06
-3.09723e-07
-6.39696e-08
-2.92346e-08
-1.22228e-07
-8.21245e-09
-9.13423e-08
9.20106e-07
1.03609e-07
-2.09714e-08
-2.74097e-06
2.62436e-06
-2.88946e-06
2.47395e-06
-1.64259e-06
2.70198e-06
-1.92855e-06
5.68884e-06
1.11457e-06
-1.5385e-05
-1.53608e-05
6.6091e-06
2.47679e-07
8.93281e-07
-1.00627e-07
-4.83553e-08
1.72137e-08
1.86169e-07
6.02423e-07
-1.57104e-06
-1.7052e-06
9.46558e-07
-1.05998e-06
-5.3339e-06
-8.57118e-06
-7.15048e-06
-2.69615e-05
-3.24952e-05
5.41306e-06
1.95826e-06
1.02688e-06
-1.88891e-05
1.98961e-05
-4.39062e-05
4.26782e-05
-1.49818e-06
-2.12275e-05
-2.66804e-07
-1.4662e-07
-3.00644e-07
-3.30463e-07
-1.91224e-05
-5.8463e-05
-0.000104685
-8.80387e-05
-0.000244249
-0.000292223
2.2851e-05
1.30445e-05
1.2319e-05
-0.000304375
0.000320538
-0.000597637
0.000590025
-1.60561e-05
-0.00033606
0.000169751
-5.22322e-06
-9.0553e-05
-8.57137e-07
8.56993e-05
-0.000173157
2.75886e-07
-8.1572e-05
3.9951e-05
8.15548e-08
-2.23437e-07
-1.99955e-06
-1.67208e-05
7.14994e-07
7.69632e-06
3.3821e-07
-4.17138e-06
-9.47387e-07
1.75685e-06
-4.91458e-07
-7.71648e-08
-3.77974e-08
2.5371e-07
-5.80367e-07
-8.06461e-08
-1.13568e-06
-1.43256e-07
3.69723e-07
4.05599e-06
1.02381e-06
-2.63121e-06
-2.16922e-06
5.39854e-06
2.10835e-05
6.88487e-05
6.39887e-07
4.72734e-06
-0.0001557
-0.00037773
-0.000734461
-0.0005742
-0.00133151
-0.00200541
-0.000169969
8.65014e-06
7.70388e-05
-0.00276577
0.00293592
-0.00461912
0.004594
-0.000111436
-0.00304925
0.00177858
-4.40773e-05
-0.00108685
-5.85193e-06
0.00104274
-0.00179241
3.93282e-06
-0.00098673
0.000549079
1.11593e-06
-4.00354e-07
-4.94689e-07
-7.13817e-06
-6.86752e-05
9.49843e-07
3.45079e-05
5.87674e-07
3.37207e-06
-3.96726e-05
7.49919e-05
-0.000153284
-0.00015329
2.84252e-06
0.000277547
1.58231e-05
-0.000528248
6.00442e-06
0.000895519
2.66756e-05
-0.00157898
1.15847e-05
0.00250548
2.59396e-06
-0.0039931
4.52305e-05
0.00606788
-0.000290618
-0.00825009
0.000312247
0.0129995
-0.00217343
-0.0123004
-0.00170925
-0.0123
0.00342234
0.0200198
-0.000655202
-0.0106918
-0.000366282
0.00856236
-0.000129347
-0.0054884
-0.000139578
0.00369713
-4.62145e-05
-0.00231365
-3.93678e-05
0.00141456
-9.0913e-06
-0.000827591
-8.09863e-06
0.000470044
-1.09172e-07
-0.000254821
-2.1589e-07
0.000136022
9.70293e-07
7.39622e-06
-1.13632e-05
-3.38878e-06
-9.55396e-07
5.34753e-07
-6.78885e-08
-1.56594e-06
-6.48345e-06
-2.32506e-05
-7.64642e-05
-0.000221066
-0.000527093
-0.000926601
-0.000889249
3.36281e-05
-0.00157838
-0.0104562
-0.0104562
-0.0106542
-0.00894977
-0.00253358
-0.00115456
-0.00495699
0.00701503
0.00975928
0.000319953
0.000183781
0.000431477
-0.00217307
0.0129987
0.000312517
-0.00825004
-0.000955207
-0.000719693
-0.000464256
4.55118e-05
-0.00399298
0.00606754
-0.000290685
-0.000117851
-0.000111027
2.52853e-06
0.00250508
1.16691e-05
-0.00157885
-9.59844e-05
-0.00023
-9.26983e-05
-3.08998e-05
2.85445e-06
0.000277529
-0.000528236
0.000895468
2.66902e-05
-5.66614e-05
-2.21022e-05
1.59127e-06
3.06615e-07
6.323e-08
-1.97214e-06
1.82001e-07
1.7754e-05
8.05684e-07
1.77551e-05
3.36897e-06
-3.96725e-05
9.97096e-07
7.50037e-05
7.39875e-06
-7.13753e-06
-8.57985e-06
9.98211e-07
-1.47838e-07
-1.99907e-06
-4.91196e-07
-4.17193e-06
3.38663e-07
7.69592e-06
1.75633e-06
3.57219e-06
-2.64944e-07
-2.67139e-06
5.68731e-07
6.70551e-07
9.34686e-07
5.10816e-07
1.29585e-06
7.74181e-07
3.57347e-07
-2.39066e-07
2.08568e-07
-5.21594e-08
-6.26046e-08
3.04612e-07
-6.51822e-08
4.20248e-08
-1.27814e-08
-1.58968e-08
-1.27007e-08
-1.1368e-08
-5.94162e-09
4.20732e-08
-1.16123e-08
2.08634e-07
-1.2479e-07
-2.39323e-07
3.57041e-07
-3.18905e-08
6.21374e-08
5.58704e-08
-7.12659e-08
-3.37875e-07
5.35496e-08
-2.37853e-07
3.33471e-07
1.11111e-06
-1.05314e-06
4.78925e-08
5.57646e-08
1.70424e-08
7.27151e-08
-1.07937e-07
-4.40573e-08
-3.70655e-07
-1.25138e-06
-3.71987e-06
-9.83419e-06
6.77592e-06
2.47471e-05
8.05368e-05
0.000212945
-0.000898416
-0.0037463
0.0129562
-0.00205727
0.00673635
-0.0147724
-0.00712041
-0.00711978
-0.0147732
-0.0075224
-0.000114872
-0.013069
0.0208149
0.00162285
-0.000699067
-0.0143286
-0.00115483
0.00923366
-0.00684239
-0.0149247
-0.0126071
-0.0116488
-0.00863283
0.00113861
0.00215387
0.00111393
0.000504282
-0.0126521
0.00111419
-0.00752182
-0.0130695
-0.000114395
0.00411274
0.00162333
-0.0143288
-0.000698821
0.00192911
-0.000191729
0.0182083
-0.0124717
-0.000235897
0.0121171
0.000962065
-0.000430887
0.00215451
0.00172497
-0.00360902
0.00411307
0.00286735
0.000372047
-0.00125729
-0.000430365
-7.28634e-05
0.000961416
-0.00193229
-7.53112e-05
-0.00110231
0.000472559
-0.000348848
-0.000659061
-0.000425355
-6.2446e-06
1.06191e-05
0.000145769
-0.00663098
0.00707954
-0.00996634
0.00990223
-0.000268888
-0.00734181
-2.69826e-05
-0.000289788
0.000492853
0.000195287
-0.000139265
-6.00489e-05
-2.25666e-05
-7.43923e-06
3.77947e-06
0.000158488
-6.73229e-06
-6.99258e-06
-6.39416e-05
4.99034e-06
-6.30588e-05
0.000112778
1.96477e-05
-0.000227902
-0.000233563
0.000115299
6.59185e-06
0.000410202
6.55153e-05
-0.000722523
-0.000746274
2.01023e-05
0.00126948
0.000176935
-0.00198879
-0.00207556
4.44764e-05
0.00338667
0.000340452
-0.00471498
-0.00502781
3.97334e-05
0.000306829
0.00132886
0.00453907
-0.000146217
-0.000203523
0.000150551
-0.000313688
0.00209461
0.00240405
0.00372128
0.00157881
0.000625483
0.000220414
6.81389e-05
1.81904e-05
6.50986e-06
-1.25382e-05
-2.0616e-05
-4.61264e-05
5.87684e-06
-4.61109e-05
7.85006e-05
2.28675e-05
-0.000167185
-0.000167231
7.85319e-05
1.36521e-05
3.84715e-06
8.62859e-07
-5.40137e-07
-3.32529e-07
-1.70863e-06
-1.13696e-06
2.96981e-06
-1.13501e-06
4.34726e-06
1.31834e-06
-1.10879e-05
-1.10962e-05
4.35317e-06
-1.31534e-06
4.7176e-07
-2.00366e-07
-2.01527e-07
7.15075e-07
-1.79619e-07
4.7255e-07
-1.9306e-06
2.70306e-06
-1.6415e-06
6.60883e-06
1.11507e-06
-1.53581e-05
-1.53938e-05
5.69637e-06
-1.70841e-06
-5.40089e-07
-7.71726e-08
9.90681e-08
7.15261e-07
-8.17545e-06
-4.67015e-07
-1.88903e-05
8.13168e-08
-4.39108e-05
-8.58122e-07
-9.05578e-05
-5.2203e-06
0.000169765
-0.000159236
6.58677e-06
-0.000233556
-0.000227963
1.96317e-05
0.000115307
-6.39367e-05
-6.30765e-05
4.98551e-06
2.84965e-05
1.74305e-06
7.59076e-05
-4.08516e-05
4.26825e-05
-2.12285e-05
-1.49773e-06
1.75125e-05
2.46483e-07
-9.34188e-06
9.52308e-06
-2.68076e-07
1.98971e-05
-9.88455e-06
8.8505e-06
-2.74143e-06
-3.7533e-08
2.62453e-06
-2.63352e-08
-2.88963e-06
-3.32324e-07
2.47543e-06
9.38345e-07
-4.59308e-07
3.78986e-08
-8.05215e-08
-5.79951e-07
2.53729e-07
9.46546e-07
6.02541e-07
5.35187e-07
-9.55962e-07
-3.39295e-06
-1.57134e-06
-7.15128e-06
-1.13859e-05
-3.72106e-05
-2.69728e-05
-8.80074e-05
-0.000106075
-0.000105817
-3.71479e-05
1.58088e-05
-0.000229441
-0.000230449
-0.000244103
-0.000574548
-0.000296735
-0.000294883
-0.000210029
-0.000210295
-0.00133257
-0.0106549
-0.00895705
-0.00253631
0.0136578
-1.86789e-05
-0.0134868
0.000319988
-0.0079492
-0.000313574
-0.000194698
-0.00214141
0.000173597
0.000110832
3.85927e-05
1.18337e-05
3.17064e-06
6.88898e-07
9.50703e-07
-3.59571e-05
-2.08658e-06
-8.15725e-05
2.70833e-07
-0.000173175
-2.38714e-06
-0.000336096
-1.60455e-05
0.000590056
-0.000545495
2.00761e-05
-0.000746257
-0.000722693
6.55112e-05
0.000410193
0.000404644
-6.40697e-05
0.000283693
7.48994e-05
-0.000529264
-0.000529377
0.000283776
-6.4056e-05
0.000404559
-3.44464e-05
6.79976e-05
1.8014e-05
4.00848e-06
1.09255e-06
-1.3151e-06
3.69855e-07
-7.35423e-07
-7.21842e-07
-5.01896e-07
-3.11845e-07
-3.81319e-07
-3.96384e-07
-1.05265e-06
-7.20501e-07
-2.82115e-07
-5.72525e-07
-4.49181e-07
4.83076e-08
-9.55937e-07
-1.16933e-06
-1.43102e-07
-1.00731e-07
-4.83742e-08
1.69953e-08
5.15575e-07
3.51237e-07
-2.11541e-08
-1.06523e-07
-1.7064e-08
-8.44304e-07
2.46859e-06
-9.47342e-07
-2.27501e-07
3.78595e-07
8.50843e-07
1.8557e-07
-1.059e-06
-1.70638e-06
1.9572e-06
1.88315e-05
1.02808e-06
3.9954e-05
-5.33588e-06
-8.56124e-06
5.40278e-06
7.93333e-05
-0.000143179
-6.71773e-06
-0.000304414
1.12982e-06
0.000549084
-0.000597668
-5.86391e-06
-0.00108694
-4.409e-05
0.00177863
-0.00162823
0.000929968
-5.9975e-05
3.4152e-05
-0.000986798
3.90631e-06
0.00104281
-8.58726e-06
-3.17708e-06
-1.05233e-06
-3.09555e-07
-2.22379e-07
-4.88223e-07
-4.01732e-07
-2.2094e-05
-5.66158e-05
2.27695e-06
2.28878e-06
1.48111e-05
1.08685e-05
0.00425779
-4.25044e-05
5.82988e-05
3.21737e-05
0.00917565
-1.87103e-05
-0.000284847
-0.000137583
-5.83378e-05
-2.15483e-05
-6.95875e-06
-1.97011e-06
-5.87855e-06
2.74957e-05
1.91854e-05
1.91741e-05
2.75123e-05
-5.87845e-06
-1.9704e-06
-6.96358e-06
-2.06143e-05
0.000112821
-1.25307e-05
-3.94437e-06
4.05774e-06
1.81986e-05
6.81464e-05
-3.44224e-05
-1.56263e-05
-6.98338e-06
-7.43748e-06
3.78814e-06
0.0001585
-1.91414e-05
-3.24503e-05
1.30087e-05
0.000293089
-0.000500301
-1.8568e-05
0.000945
-0.00151901
-3.98022e-05
0.00264541
-0.00397047
-4.21337e-05
-0.00663115
3.22604e-05
0.00917506
-0.00887905
-0.000366103
0.00641163
-0.000139807
-0.000169704
8.47227e-06
2.27716e-05
-0.000104542
-5.85262e-05
-0.000156046
-0.000291459
-0.00037812
-0.000731827
-0.00115458
-0.00200878
-0.00495904
0.00701461
-0.00613812
0.0037018
-0.0116493
-0.0149244
-0.00684217
0.00923388
-0.00115522
0.000621751
0.0097589
0.000151126
0.0143549
-9.63246e-05
-4.95266e-05
-2.14304e-05
-2.35159e-05
-5.16357e-05
5.8188e-05
-0.000117762
-0.000111015
1.47597e-05
-0.000137582
8.34295e-05
3.89218e-05
-5.83448e-05
-2.15466e-05
-0.000172232
0.00126145
0.000891551
0.000198141
-0.00145349
-0.00145371
0.000891749
-0.000172237
0.00126127
-7.95088e-05
-2.25791e-05
9.21707e-05
-1.56925e-05
2.70622e-05
2.06378e-05
0.000280884
-0.000146562
0.00339136
0.00240852
-0.000398317
0.000115211
0.000158894
0.00243766
2.71746e-05
0.00608022
-4.56594e-05
0.000183797
0.000431585
0.00286647
0.00887717
-0.00360956
0.000371681
-0.00125719
-0.00863229
0.0208146
-0.0126067
0.00113901
-7.31573e-05
-0.000736815
0.00387927
-0.000236192
0.000925992
0.0038101
-0.000215322
-0.000798301
0.000925464
0.0120369
0.00805012
0.0200011
0.0116504
0.0164
0.0178739
-0.000898897
0.00161086
0.000635207
0.000221851
-7.94428e-05
0.000220364
0.000625503
-0.000146349
-0.000398354
2.09797e-05
-2.2569e-05
6.88284e-05
2.10822e-05
5.40349e-06
8.93822e-07
-1.47404e-07
-3.05793e-07
-3.51053e-07
1.23421e-05
0.000320568
5.70594e-07
4.60183e-06
7.72245e-05
0.00425752
0.000145949
-0.000289279
-0.000139091
0.000195207
0.000492795
1.02982e-05
-6.73836e-06
-0.000145697
-0.000425705
0.00132885
0.00453878
0.00209429
0.000306742
-0.000214708
0.00157824
0.000816452
0.00240451
0.000281076
-2.25613e-05
0.000284944
-2.16934e-06
-2.62883e-06
-1.13399e-06
1.02518e-06
6.51252e-06
2.70969e-05
9.25207e-05
-0.000284781
0.000814317
-3.94956e-05
-8.11696e-06
-2.17777e-07
8.57005e-05
-3.94509e-06
2.84959e-05
1.74439e-06
5.5976e-08
6.21516e-08
-3.18435e-08
-2.3782e-07
5.8022e-08
5.38572e-08
-3.3766e-07
-7.12102e-08
-1.13792e-08
1.11139e-06
3.34166e-07
-1.70431e-06
-6.98642e-07
7.13372e-07
-1.80364e-07
1.35826e-07
-5.0132e-07
3.40657e-05
0.00165043
-3.97018e-05
-4.87221e-05
0.00192919
-4.53883e-05
-0.00193243
1.90712e-08
5.86162e-07
6.05083e-06
-2.76309e-05
-6.11449e-06
-0.000319938
-1.85809e-05
-1.28823e-05
-2.08848e-06
-2.38578e-06
-8.44415e-07
-2.63914e-08
9.38512e-07
0.0115689
0.0101601
-1.17623e-05
-0.00140152
-1.1763e-05
0.0178805
0.020002
-1.42275e-07
3.69812e-07
4.05728e-06
1.11456e-06
6.6081e-06
5.68945e-06
-1.53862e-05
-1.53588e-05
2.46602e-07
-9.33926e-06
2.47415e-06
9.38221e-07
-4.4986e-07
-5.73437e-07
-4.59775e-07
3.7985e-08
-1.70569e-08
-1.06531e-07
3.51835e-07
5.15452e-07
3.78731e-07
8.52728e-07
1.29608e-06
-9.47066e-07
7.74326e-07
5.11699e-07
9.34922e-07
3.57865e-07
6.70675e-07
5.86332e-07
6.70796e-07
9.34759e-07
5.11461e-07
1.296e-06
7.7405e-07
-9.47247e-07
2.46845e-06
-2.27099e-07
8.52594e-07
3.7883e-07
5.15791e-07
3.51334e-07
-1.06921e-07
-2.12067e-08
2.62422e-06
-2.8889e-06
2.47453e-06
-8.06179e-08
3.84366e-08
-4.59882e-07
-5.73181e-07
-4.49378e-07
-9.57032e-07
4.761e-08
-1.16912e-06
-1.79853e-07
4.72274e-07
-1.13533e-06
2.96924e-06
-2.01077e-07
4.71106e-07
-1.80569e-07
-1.16822e-06
4.74169e-08
-1.6426e-06
2.70174e-06
-1.92843e-06
-1.70815e-06
4.35213e-06
4.34712e-06
1.31766e-06
-1.10945e-05
-5.87782e-06
2.74978e-05
4.98637e-06
2.84954e-05
-4.08431e-05
1.74663e-06
7.58897e-05
-9.05475e-05
4.26763e-05
-1.49709e-06
-2.12257e-05
1.75071e-05
3.93785e-07
1.55266e-06
5.09086e-06
1.20999e-05
1.12719e-05
-5.14516e-05
-8.12867e-05
0.00387926
-0.00317266
0.012436
-0.00963272
0.0014779
0.0121167
-0.000236294
-0.0124716
0.00923382
-0.00684211
-0.0149241
-0.0116485
-0.0126063
-0.013069
0.0208148
0.00411286
0.00286736
-0.000114648
-0.00752237
-0.0147727
-0.00712016
-0.0126518
-0.00711979
-0.0147735
-0.00752223
-0.0130696
0.0208148
-0.0116485
-0.0126067
-0.0149246
-0.00684201
0.00923399
-0.0124718
0.0182081
-0.0185245
0.0124359
0.00147834
0.0121171
-0.00963255
0.006086
0.0140534
0.0101596
0.00771003
0.0175679
0.00651792
0.00431139
0.00926225
-0.0105371
-0.0105369
0.00431143
0.0065175
0.0175677
0.00771017
0.0101595
0.0115678
0.0140549
0.00608699
0.00743763
0.00670325
-0.00349939
0.0178799
0.0195861
0.0200002
0.0163643
0.0163994
0.0178739
0.0163998
-0.0268641
-0.000236478
-0.000236176
-0.00801961
0.0163641
0.0200003
0.0195862
0.0178804
0.00670274
0.00743759
0.00553433
-0.000120417
-0.00021021
-0.000322168
-0.00595186
-0.00802588
-0.00811165
-0.0187937
-0.0216005
0.0037023
-0.0061381
0.0136577
-0.00887864
0.00641169
-0.00397044
0.00264527
-0.00151898
0.000944948
-0.000500319
0.000293088
-0.000143166
7.93323e-05
-3.59591e-05
1.88312e-05
-8.17557e-06
8.8498e-06
-9.8834e-06
9.52259e-06
-9.34069e-06
6.60821e-06
1.11408e-06
5.69536e-06
-1.93047e-06
2.70252e-06
-1.64163e-06
9.38164e-07
-1.66528e-07
3.94383e-07
1.55618e-06
5.08403e-06
1.20634e-05
1.11865e-05
-5.15771e-05
-8.15114e-05
0.00387907
-0.00317257
-0.00110258
0.00193048
0.000472411
-0.00689478
-0.00689484
0.00193047
-0.00110248
0.0004724
-0.00306707
-0.0185246
0.0182082
-0.00115492
-0.0143286
0.00162288
-0.000698932
0.00192931
-0.000191512
-0.000194711
-0.00214138
-0.000898495
-0.00214137
0.00162261
0.00411272
0.00887674
0.0028674
-0.00205719
-0.00205713
0.00887695
0.000618625
-0.00527206
0.00608002
0.00608006
-4.5481e-05
-0.00527209
0.000371711
0.00172501
0.00215382
0.0011392
-0.00863255
0.00111349
0.000503962
0.0129567
-0.00374644
0.00342227
-0.00615188
-0.00892975
-0.0191234
-0.0139806
0.0259313
-0.0123002
0.0129987
0.0129992
0.000312375
0.0085626
-0.000129284
-0.00548843
0.00369708
-4.61627e-05
-0.00231374
0.00141452
-9.0935e-06
-0.000827594
0.000470063
-1.07429e-07
-0.000254845
0.000136027
9.69232e-07
-6.86776e-05
3.45092e-05
5.88127e-07
-1.67215e-05
7.69628e-06
3.38523e-07
-4.17085e-06
-2.64651e-07
-2.67089e-06
-2.67098e-06
3.57814e-07
-2.38708e-07
1.00517e-07
-5.52682e-07
-1.33895e-08
3.22712e-07
3.22451e-07
-4.90763e-07
-4.3837e-08
3.6988e-07
3.69826e-07
-3.99343e-07
1.70902e-08
7.5565e-07
7.55419e-07
-2.68574e-07
1.15064e-08
-3.17626e-07
-3.18442e-07
-5.01688e-07
-3.11886e-07
-3.81902e-07
-3.97053e-07
-7.20772e-07
-2.82225e-07
5.02238e-07
-1.0063e-06
4.10272e-08
3.34094e-07
1.11111e-06
-1.05364e-06
-3.37944e-07
-7.13086e-08
-6.3371e-07
-5.74015e-09
6.02757e-07
-1.26086e-06
-2.92159e-08
1.94685e-08
1.1797e-06
-2.0652e-07
-6.39048e-08
8.34218e-08
9.89724e-08
6.87007e-07
3.16675e-06
1.18424e-05
3.85903e-05
0.000110921
0.000173618
-1.86201e-05
-0.0134871
0.0143549
-0.0148178
0.0130613
-0.00908127
0.00633825
-0.00419002
0.00262455
-0.00162805
0.000929816
-0.000545439
0.000284902
-0.000159222
7.58999e-05
-4.08457e-05
1.75113e-05
2.46711e-07
-1.53565e-05
-1.5392e-05
-1.109e-05
1.91743e-05
5.87771e-06
1.91822e-05
-4.61185e-05
-6.30638e-05
-6.39351e-05
0.000115294
0.000112791
1.96326e-05
-0.000233548
6.59326e-06
-0.000159227
-5.21462e-06
0.000169752
-0.000173149
-2.38033e-06
0.000320535
-0.000304356
0.000158489
2.8023e-07
8.56925e-05
-8.57756e-07
-4.39045e-05
1.98951e-05
-2.67401e-07
9.52235e-06
-3.32372e-07
-2.88919e-06
-8.03055e-08
-2.06167e-07
5.02203e-07
-2.8268e-07
-7.21038e-07
-3.97234e-07
-3.81737e-07
-3.11675e-07
-5.00932e-07
1.35322e-07
-2.68725e-07
-6.86221e-08
-1.70366e-06
3.3369e-07
3.31483e-08
4.0861e-08
1.11057e-06
-1.0059e-06
1.17945e-06
1.93677e-08
-1.63392e-07
-3.99374e-07
7.32853e-08
8.63135e-07
3.85021e-06
1.36547e-05
3.89276e-05
8.34257e-05
0.000115332
0.000158928
0.00243755
-0.00240911
-0.00584417
-0.00441635
-0.00193251
0.000961864
-7.33642e-05
-0.00023581
-0.00125712
-0.0143287
-0.000698888
0.00192904
-4.53249e-05
0.000183725
0.000320014
-0.0079494
0.00745616
-0.0101991
0.00245511
-0.0290784
0.00237178
-0.00923481
0.000165369
0.00772114
0.00770355
-0.011009
-1.35071e-05
0.0013288
0.00453915
-0.000145981
-0.00495812
-0.00895105
-0.0106541
-0.00133132
-0.00201134
-0.0025358
-0.00115432
-0.000378072
-0.000730799
-0.000574862
-0.000244499
-0.000291373
8.61619e-06
-0.000170053
0.000146018
0.00917521
-0.00996598
0.00707937
-0.00734178
-0.000268816
0.00990211
-4.89092e-05
-9.6286e-05
-0.000194852
-0.000191887
-0.00306711
-7.5412e-05
-0.000430519
0.000372018
-0.00360888
-0.000114606
0.00673676
-0.00241002
-0.0104566
-0.00157753
3.42384e-05
-0.000889238
-0.000926991
-0.000527077
-0.000221149
-7.64736e-05
-2.32568e-05
-6.48315e-06
-1.5659e-06
-6.7638e-08
5.34922e-07
5.34986e-07
6.02474e-07
-1.5707e-06
-7.15501e-06
-2.69925e-05
-8.81325e-05
-0.000104471
2.28174e-05
-0.0001559
-5.854e-05
-1.9144e-05
-3.24183e-05
1.30322e-05
1.23414e-05
0.000549064
-0.000597652
0.000320529
-0.000336062
-1.60521e-05
0.000590038
-0.00108684
-4.40678e-05
0.00177856
-0.00304939
-0.00011127
0.0045936
-2.6786e-05
-0.00461899
0.00293601
1.07651e-05
0.00425767
-0.00663127
3.21568e-05
5.82881e-05
-4.94723e-05
-2.14011e-05
-1.29183e-05
-0.00179237
0.00104272
3.94866e-06
0.00165038
-0.00276574
-3.97443e-05
7.73179e-05
1.04206e-05
-6.73614e-06
0.000150833
0.00975896
0.000622088
-0.00115489
0.00701426
-0.000425346
-0.000476916
0.00209385
0.00804835
0.0120363
0.00372091
0.00240823
0.000307156
-0.000289763
0.000492937
0.000195329
4.62718e-06
6.12809e-07
-3.47639e-07
-3.02532e-07
-5.33861e-06
-8.54094e-06
5.40913e-06
3.78879e-06
0.00015849
-0.000173161
8.56961e-05
-9.05534e-05
-5.223e-06
0.000169758
-2.39233e-06
-3.17354e-06
-8.58651e-06
-5.85655e-06
-3.98608e-07
1.12837e-06
-0.000304395
-6.73069e-06
-2.20952e-05
0.000470058
-8.09288e-06
-0.000827699
-9.13468e-06
0.00141457
-3.92504e-05
-0.00231387
-4.62798e-05
0.00369698
-0.000139424
-0.00548838
-0.000129835
0.00856253
-0.000366338
-0.0106918
-0.000655331
0.0200196
0.0153835
-0.00217367
0.000431598
0.000431541
0.02002
-0.000655205
-0.0106917
-0.00217359
-0.0122996
0.00342251
0.0259311
-0.00170869
-0.0139804
-0.0191224
-0.00892935
-0.0216012
-0.00615182
-0.00241
0.00673679
-0.00360899
0.0011138
0.00215436
-0.00863242
0.00113938
-0.00125727
-0.000430896
-0.000736865
-0.000200816
2.70956e-05
-0.000111197
0.000212932
-0.000719801
0.000312323
-0.00824974
0.00606817
-0.00399317
0.00250527
0.00250512
1.16902e-05
-0.00157894
2.67198e-05
0.00089546
6.03768e-06
-0.000528238
1.5839e-05
0.000277543
2.85263e-06
-0.000153299
7.40316e-06
7.5002e-05
9.98845e-07
-3.96705e-05
3.37261e-06
1.77546e-05
1.82427e-07
-9.75292e-06
1.75727e-06
3.57261e-06
5.688e-07
3.57232e-06
-2.64816e-07
-4.17115e-06
3.38664e-07
7.69682e-06
7.158e-07
-1.67217e-05
5.88235e-07
3.45096e-05
9.5366e-07
-6.86796e-05
9.67244e-07
0.000136024
-2.11316e-07
-0.000254851
-1.23948e-07
1.58262e-05
0.00027754
-6.10107e-06
-0.00015329
7.49991e-05
-3.96706e-05
1.77545e-05
8.05085e-07
-9.75296e-06
1.75683e-06
-4.91003e-07
-1.99851e-06
3.37226e-06
-3.39541e-06
-1.13874e-05
-3.72323e-05
-0.000106115
-0.000230184
-0.000295423
-0.000209866
-0.000209669
-0.0104563
-0.0106539
-0.0013312
-0.000296039
-0.00824924
-0.000290919
0.00606806
4.53982e-05
-0.00399302
2.55835e-06
-0.000111008
-0.000464315
4.52784e-05
-0.000319757
-0.000229994
1.16463e-05
-0.00157895
0.000895524
-0.000528267
6.0131e-06
-9.26634e-05
-2.75482e-05
-3.08898e-05
2.84424e-06
-8.57617e-06
9.97645e-07
-1.42637e-07
-1.97113e-06
1.82334e-07
-2.3359e-07
-4.12441e-07
1.01044e-07
-2.38479e-07
5.49226e-07
1.94866e-07
1.94862e-07
5.49132e-07
2.7294e-07
-1.24489e-07
4.17034e-07
-1.11516e-06
-3.93893e-08
-9.09965e-08
9.20226e-07
1.03556e-07
-5.25911e-07
2.49063e-07
6.81494e-07
3.76595e-07
9.29433e-07
3.0487e-07
-6.51178e-08
-6.27353e-08
-5.18548e-08
1.21376e-08
4.02805e-07
-5.18002e-08
2.73317e-07
4.17472e-07
-1.24262e-07
-1.06858e-07
-3.91021e-08
9.20418e-07
-9.0994e-08
-1.226e-07
-2.95966e-08
-1.26082e-06
6.02955e-07
-5.95691e-09
-6.3372e-07
-7.12521e-08
-1.26593e-08
-6.26209e-08
-4.81848e-08
2.08616e-07
-1.06876e-07
-5.18321e-08
-1.15951e-08
4.20063e-08
-1.26669e-08
-1.1388e-08
-1.57778e-08
-1.16067e-08
2.08716e-07
-5.52943e-07
-5.14455e-08
-4.91055e-07
6.33929e-08
3.06417e-07
1.59311e-06
6.77403e-06
2.47667e-05
8.0513e-05
-0.000117851
-0.000290458
-0.000117852
0.000173533
-0.000366117
0.0136579
-1.87726e-05
0.00917548
3.23367e-05
0.00707954
-2.69547e-05
0.00459396
-0.000111313
-0.00304927
0.00262472
4.45145e-05
0.00126933
0.00126132
0.00017698
-0.00207555
0.00338612
0.00339156
0.000340303
-0.00502753
3.98876e-05
-0.00419055
0.00633825
-0.00734183
0.0099019
-0.000268526
-0.00908174
-1.31812e-05
0.00770303
0.00772141
0.000165106
-0.0110086
0.0130618
-0.0148178
-4.87753e-05
-0.00996599
0.0143549
-0.0134869
0.00975937
0.000320061
-0.00794938
-0.000313603
0.00745626
-0.000659043
-0.0101994
-0.00853074
0.00245511
0.00237241
-0.029079
0.0120369
0.0116497
0.000925269
-0.000899049
-0.00695904
0.00013751
0.00546686
0.00546765
-0.000797676
-0.00471451
0.000340324
0.00339121
0.00338658
-0.00502755
3.95922e-05
-0.0020756
0.000177069
0.00126125
0.00126945
4.4483e-05
-0.000746278
6.55106e-05
0.000404541
0.000410208
2.00964e-05
6.88763e-05
2.11015e-05
5.40418e-06
8.93871e-07
-1.47774e-07
-1.0592e-06
-1.71177e-06
1.95869e-06
1.02779e-06
3.99515e-05
-4.3907e-05
1.98969e-05
-2.12285e-05
-1.49571e-06
4.26802e-05
-8.59021e-07
-1.05259e-06
-3.09335e-07
-2.68094e-07
-7.72098e-08
-3.75497e-08
-2.74086e-06
-8.43944e-07
1.72669e-08
1.86928e-07
9.459e-07
2.54081e-07
-4.83183e-08
-1.70956e-08
-2.62735e-08
-5.80027e-07
-2.16873e-06
-7.43777e-06
-2.25678e-05
-6.00465e-05
-0.000139258
2.11416e-05
0.00081513
0.00157777
0.000625395
0.000282148
-2.2496e-05
-7.94787e-05
-0.00014646
-0.00198874
-0.00145377
0.000198042
0.000891475
0.000891677
-0.000172242
-0.000529406
7.4947e-05
0.000283684
0.000283747
-6.4061e-05
-0.000227911
1.96431e-05
0.000112795
0.00011531
-0.000233565
6.60045e-06
-1.55937e-05
9.28527e-05
0.000220312
6.81276e-05
2.71366e-05
-6.99402e-06
-1.25366e-05
-6.30667e-05
4.98608e-06
2.75052e-05
2.84986e-05
-6.39307e-05
1.74558e-06
-2.62956e-06
6.50765e-06
1.81944e-05
4.05751e-06
1.02052e-06
-1.13488e-06
-1.0105e-07
-1.44593e-07
3.69947e-07
-7.355e-07
-7.21367e-07
-6.78557e-07
-5.53969e-07
-7.03907e-07
-7.17267e-07
-7.3577e-07
7.13329e-07
-7.06567e-07
1.09233e-06
4.00797e-06
-3.94316e-06
-5.87859e-06
-1.96892e-06
-2.22786e-07
8.26482e-08
-1.88904e-05
-4.67576e-07
-4.90195e-07
2.78958e-07
-8.15721e-05
-2.08679e-06
-7.13829e-06
7.40439e-06
-7.13639e-06
-2.20948e-05
-5.66395e-05
3.85696e-05
0.000110875
-0.000139615
0.00641163
-4.24822e-05
0.00425781
1.08717e-05
0.00293593
-1.29736e-05
0.00177866
-4.40928e-05
-0.00108682
0.000929871
2.0104e-05
0.000410168
0.000404575
6.54881e-05
-0.00074619
-0.000722683
-0.000172275
-0.000529272
-7.95082e-05
0.000634917
0.00160999
0.00380946
-0.000215461
-0.000215437
0.000925099
-0.000898927
-0.00923583
-0.00695787
-0.000348822
0.000183775
5.82384e-05
-9.63066e-05
-4.95272e-05
-5.16379e-05
1.47851e-05
-0.000110963
2.5047e-06
-5.66317e-05
2.67428e-05
2.29238e-06
-2.35011e-05
-9.8323e-06
-3.71477e-06
-1.25043e-06
-3.70288e-07
-1.0777e-07
1.1213e-07
8.36541e-08
9.94074e-08
6.8938e-07
3.16724e-06
1.18335e-05
-8.04533e-06
0.000944848
-1.85628e-05
0.000549085
1.13907e-06
-0.000597638
-5.85228e-06
0.000590031
-1.60485e-05
-0.000336053
0.0002849
-0.000545468
-2.25872e-05
1.23147e-05
1.3052e-05
-8.81378e-05
-0.000244529
-0.00057432
-0.000229435
-0.000105862
-3.71439e-05
-1.1359e-05
-2.70104e-05
-7.16234e-06
-3.38437e-06
-9.55259e-07
-1.5695e-06
6.02632e-07
1.87582e-07
9.468e-07
-8.17466e-06
-4.66393e-07
8.85041e-06
-3.70624e-08
2.6246e-06
-2.63519e-08
-6.39215e-08
-3.09189e-07
-1.05188e-06
-3.17357e-06
-8.58839e-06
-2.13906e-05
1.48223e-05
2.28805e-06
3.92063e-06
-0.000986662
0.0010427
-0.00179238
0.00165048
-0.00151896
-3.97902e-05