/*--------------------------------*- C++ -*----------------------------------*\
| =========                 |                                                 |
| \\      /  F ield         | OpenFOAM: The Open Source CFD Toolbox           |
|  \\    /   O peration     | Version:  2306                                  |
|   \\  /    A nd           | Website:  www.openfoam.com                      |
|    \\/     M anipulation  |                                                 |
\*---------------------------------------------------------------------------*/
FoamFile
{
    version     2.0;
    format      ascii;
    arch        "LSB;label=32;scalar=64";
    class       volVectorField;
    location    "2.1";
    object      flux;
}
// * * * * * * * * * * * * * * * * * * * * * * * * * * * * * * * * * * * * * //

dimensions      [0 1 -1 1 0 0 0];

internalField   nonuniform List<vector> 
5322
(
(-0.00100651 0.00260034 -0.00348814)
(2.28664e-05 0.000244214 -0.00356122)
(2.79088e-05 -1.78417e-05 -0.00367691)
(3.21333e-06 -0.000109318 -0.00398589)
(-4.90974e-07 -6.06244e-05 -0.00395505)
(-6.51383e-07 -2.15474e-05 -0.003944)
(4.88537e-08 -7.8606e-07 -0.00394093)
(5.53968e-07 1.92647e-05 -0.00394445)
(3.42053e-07 5.66301e-05 -0.0039561)
(-8.11474e-07 0.000103422 -0.00398868)
(-4.02325e-06 9.24075e-07 -0.00394329)
(4.40288e-05 -0.000770701 -0.00395453)
(6.78193e-05 -0.000856593 -0.0029761)
(-0.000934034 -0.00076889 -0.00410305)
(-2.47416e-05 -0.000667459 -0.00448654)
(0.00162557 0.00144451 -0.00358142)
(-0.00127733 0.00193216 -0.00423349)
(-2.01518e-05 -2.96698e-06 -0.00316936)
(-0.000974563 0.00133419 -0.00446229)
(0.000628174 -0.00158169 -0.00450294)
(-0.000854053 0.00150427 -0.00453122)
(0.000742757 -0.00152811 -0.00451073)
(-0.000785593 0.00149896 -0.00451269)
(0.000789769 -0.00153402 -0.00453634)
(-0.000799929 0.00152862 -0.00453578)
(0.000768278 -0.00149948 -0.00451058)
(-0.000769891 0.00149794 -0.00451183)
(0.000798525 -0.0015291 -0.00453265)
(-0.000786561 0.00152474 -0.00453394)
(0.0007866 -0.00150598 -0.00451126)
(-0.000746367 0.00151526 -0.00451002)
(0.00084769 -0.00151517 -0.00451835)
(-0.000636796 0.00156446 -0.00448688)
(0.000970233 -0.00134391 -0.00441511)
(1.37349e-05 0.00128912 -0.00419751)
(0.00121731 -0.000644369 -0.00344588)
(0.000858217 0.00126587 -0.00391932)
(-0.000342229 0.00158908 -0.00399453)
(0.00096201 0.000793703 -0.00412331)
(-5.52312e-05 0.000859314 -0.00290365)
(-0.000912346 0.00117279 -0.00383449)
(0.000917476 0.000979512 -0.00395725)
(-5.55464e-05 0.00101385 -0.00285159)
(-0.000976142 0.0010947 -0.00396311)
(0.000970075 0.00104369 -0.00392436)
(-3.33841e-05 0.00103332 -0.00289895)
(-0.00103754 0.00106032 -0.004018)
(0.000906024 0.00113278 -0.00379272)
(-2.29231e-05 0.00104948 -0.00286032)
(-0.00108743 0.00100227 -0.00392843)
(-0.00107278 0.00125736 -0.00439959)
(-0.00155801 0.000608859 -0.00315729)
(-0.000486624 0.000681551 -0.00429661)
(0.00104485 -0.00224659 -0.00403693)
(-6.66337e-05 -0.00012261 -0.00378525)
(-0.00172547 -0.00129998 -0.00383813)
(-4.90179e-05 0.000683281 -0.00455269)
(0.00164902 -0.00170486 -0.00377865)
(-1.9788e-05 -9.70639e-05 -0.00382489)
(-0.00164781 -0.00148172 -0.00384221)
(-7.10236e-06 0.000693801 -0.00460823)
(0.00160595 -0.00167659 -0.00382958)
(-9.27854e-06 -8.6659e-05 -0.00382646)
(-0.00161852 -0.00147071 -0.00374745)
(-5.84888e-07 0.000696591 -0.00460498)
(0.00158135 -0.00173499 -0.0039583)
(2.00791e-05 -0.000111605 -0.0038082)
(-0.00160285 -0.00142233 -0.0035591)
(6.89999e-05 0.000703062 -0.00449559)
(0.00131261 -0.00190864 -0.0042022)
(5.20914e-05 6.72496e-05 -0.00315431)
(-0.00140131 0.00167738 -0.00491584)
(0.00158779 0.000934326 -0.00468182)
(-0.00164332 0.00130525 -0.00461524)
(0.00158197 0.000975009 -0.00466427)
(-0.00161099 0.00123486 -0.00464158)
(0.00161413 0.00103042 -0.00463917)
(-0.00161078 0.00122942 -0.00462284)
(0.00183365 0.00104388 -0.00468307)
(-0.00132112 0.00144418 -0.00443408)
(0.000647357 0.000131553 -0.00421789)
(-0.000855082 0.000485511 -0.00324205)
(-0.000552877 0.000733837 -0.00336051)
(0.000960089 0.00122161 -0.0045428)
(9.979e-05 -0.000104001 -0.00309832)
(-0.000544377 -0.000510486 -0.00411915)
(0.000635837 0.000145203 -0.00555865)
(-0.00171199 0.00028558 -0.00339528)
(-0.000646229 0.000528784 -0.00348082)
(0.00204064 6.06334e-05 -0.00312815)
(-8.77454e-05 0.000138406 -0.00395591)
(3.81988e-05 2.55869e-05 -0.00353821)
(7.04966e-05 4.05029e-06 -0.00373316)
(0.000318462 4.76551e-06 -0.0037036)
(0.00146379 0.00177802 -0.00449604)
(-0.000340407 -0.000949194 -0.00389316)
(-4.1685e-05 2.86004e-05 -0.00387982)
(-0.000167896 0.000957011 -0.00394905)
(0.000655602 2.59789e-05 -0.00565723)
(-0.00151809 -2.49386e-05 -0.00330447)
(-0.00151969 0.000130522 -0.00333216)
(0.00339611 2.5579e-05 -0.00317928)
(-0.000165064 0.0010133 -0.00397896)
(0.00112903 -0.00173347 -0.00444312)
(0.00183773 0.00155125 -0.00483339)
(-2.29765e-05 2.09056e-05 -0.00376526)
(1.10582e-05 -2.96324e-05 -0.0039946)
(1.51509e-05 -5.5141e-06 -0.0040041)
(9.17622e-06 -8.9505e-07 -0.00399138)
(4.48279e-06 1.67787e-06 -0.00399725)
(1.76566e-06 1.90513e-06 -0.00399904)
(-5.03021e-07 2.3343e-06 -0.00399801)
(-4.73801e-06 5.30743e-06 -0.00399376)
(-1.16009e-05 1.06371e-05 -0.00400776)
(1.82275e-05 -1.80342e-05 -0.00461479)
(-6.14981e-06 4.73018e-06 -0.00457005)
(-0.000536715 0.000549397 -0.00319812)
(-0.000529558 -0.000225981 -0.00346556)
(5.60475e-05 -7.76369e-05 -0.00461596)
(0.000337516 -0.000424021 -0.00381951)
(1.91711e-05 0.000521521 -0.00338559)
(0.000514936 -0.000290265 -0.00411789)
(-0.000615928 -0.000565612 -0.00406017)
(-4.61493e-05 -0.000773695 -0.00572008)
(-0.000141855 -0.000874287 -0.00426097)
(0.000954829 -3.52216e-05 -0.00560103)
(0.000785446 0.000640827 -0.00402154)
(0.000218432 -0.000483567 -0.00419928)
(0.000614127 4.53142e-05 -0.00550491)
(0.000397003 0.000528131 -0.00400456)
(0.000301896 -0.000526035 -0.00410991)
(0.000659354 2.21583e-05 -0.00555462)
(0.000332909 0.000549013 -0.0040666)
(0.000357152 -0.000562936 -0.00403336)
(0.000670831 -1.77859e-05 -0.00558)
(0.000291448 0.00051273 -0.0041241)
(0.000562039 -0.000615068 -0.00405836)
(0.000762556 -4.89769e-05 -0.0057291)
(0.000864429 -0.000141952 -0.00426409)
(3.7133e-05 0.000941642 -0.00560142)
(-0.000633636 0.000780118 -0.00403154)
(3.49344e-05 -0.000511278 -0.00339712)
(0.000422079 0.000338975 -0.00381988)
(-0.000511362 0.000263503 -0.00341706)
(-0.000548622 -0.000538955 -0.00320406)
(7.84162e-05 5.80719e-05 -0.00461651)
(0.000226695 -0.000528072 -0.00346572)
(0.000124734 0.000414215 -0.00344135)
(-0.000429363 0.000425687 -0.00316152)
(-0.000471902 -0.000469385 -0.00318235)
(8.82854e-05 -7.09883e-06 -0.00460737)
(0.000140569 -0.000438008 -0.00344606)
(0.000169414 0.000439621 -0.00343274)
(-0.00046567 0.000474529 -0.00316332)
(-0.000441833 -0.0004263 -0.00318999)
(8.90176e-05 -1.4321e-06 -0.00460618)
(9.24117e-05 -0.000407471 -0.00345297)
(0.000268237 0.000517281 -0.00341544)
(-0.000511101 -3.37425e-05 -0.00339594)
(0.000666856 -2.5516e-05 -0.00448585)
(-0.00143752 0.00162554 -0.00357615)
(-0.00192687 -0.00127399 -0.00423903)
(0.00166063 0.00140871 -0.0049293)
(-0.00194465 -0.00149587 -0.00481791)
(-8.14336e-05 5.05756e-05 -0.00305657)
(-0.00133808 -0.000965367 -0.00446314)
(1.07209e-05 -2.06626e-05 -0.00316965)
(0.00130446 -8.82764e-06 -0.00429338)
(-0.000313299 -0.00018067 -0.00293968)
(0.00155476 0.000466398 -0.0039756)
(0.000770722 -0.000933179 -0.00410801)
(0.00114928 0.000928461 -0.00381598)
(-0.00172232 -0.00155854 -0.00395149)
(0.000672082 3.55538e-06 -0.00458645)
(-0.00148403 0.00159189 -0.00377256)
(0.000987261 -0.00157263 -0.00464604)
(0.00128714 0.00163732 -0.00461355)
(-0.00157427 -0.00167324 -0.00445556)
(3.5245e-05 6.96119e-06 -0.00372379)
(-0.00133844 0.00164842 -0.00444784)
(0.00117796 -0.00168879 -0.00455248)
(0.00146628 0.00175161 -0.00456188)
(-0.00155823 -0.00174621 -0.00452025)
(-9.73349e-06 6.50135e-06 -0.00378194)
(-0.00130601 0.00170745 -0.00452544)
(0.0012429 -0.00171907 -0.00453942)
(0.00151846 0.00177449 -0.0045452)
(-0.00155623 -0.00176707 -0.00452988)
(-3.12872e-06 3.98501e-06 -0.00379534)
(-0.00129861 0.00172592 -0.00453403)
(0.0012649 -0.00173019 -0.00453921)
(0.00153617 0.0017824 -0.00454318)
(-0.00156505 -0.00177474 -0.00452977)
(1.90219e-07 3.35279e-06 -0.00380074)
(-0.00130654 0.00173397 -0.00453557)
(0.0012628 -0.00173948 -0.00454132)
(0.00153919 0.00179149 -0.00454735)
(-0.0015877 -0.00177773 -0.00452421)
(1.71825e-06 4.35556e-06 -0.00380488)
(-0.00132883 0.00173729 -0.00453343)
(0.00124222 -0.00175019 -0.00454557)
(0.00153096 0.00180334 -0.00455581)
(-0.00162246 -0.00177337 -0.0045146)
(4.05089e-06 5.73958e-06 -0.00380731)
(-0.00135715 0.00173055 -0.00452774)
(0.00120231 -0.00175513 -0.00454355)
(0.0015096 0.00180799 -0.00455905)
(-0.00165001 -0.00173676 -0.00450767)
(9.66655e-06 7.38049e-06 -0.00379492)
(-0.00136403 0.00168702 -0.00452635)
(0.00112904 -0.00173675 -0.00446311)
(0.00140949 0.00175125 -0.00447785)
(-0.000307791 -0.000949088 -0.00394017)
(0.000626325 -4.26707e-06 -0.0056604)
(-0.00150689 -6.99265e-05 -0.00330572)
(-0.0015367 2.90939e-05 -0.00329401)
(0.00341701 -2.82076e-05 -0.00319024)
(-0.000117415 -1.73622e-06 -0.00449365)
(-0.00012866 1.1112e-05 -0.00448133)
(7.88776e-05 1.47289e-05 -0.00373346)
(0.000343736 4.31108e-08 -0.0037046)
(0.00145432 0.00178185 -0.00448217)
(-0.000268769 -0.00094476 -0.00392408)
(-2.68121e-05 7.97899e-06 -0.00383225)
(-0.000299566 0.00112621 -0.003974)
(0.000596609 -0.000152989 -0.00564032)
(-0.00153537 -4.49653e-05 -0.00332335)
(-0.00151014 3.71018e-05 -0.0032934)
(0.00339743 -5.54394e-05 -0.00319611)
(-0.000198943 0.000954174 -0.00392583)
(0.00112935 -0.0017547 -0.00446852)
(-4.2955e-05 1.01738e-05 -0.00387835)
(1.86429e-05 7.80812e-06 -0.00392384)
(1.81814e-05 2.19437e-05 -0.00399717)
(1.16932e-05 1.41947e-05 -0.00399067)
(6.07701e-06 7.57375e-06 -0.00399898)
(2.62671e-06 3.39869e-06 -0.00400062)
(-3.01268e-08 2.20292e-07 -0.00399897)
(-4.37878e-06 -4.70364e-06 -0.00399415)
(-1.05413e-05 -1.18362e-05 -0.00400762)
(1.81894e-05 1.75831e-05 -0.00461458)
(-5.63684e-06 -6.32967e-06 -0.00457118)
(0.000426492 -0.000442265 -0.00318403)
(-0.000473399 -0.000471065 -0.00317417)
(0.000471735 -0.000471278 -0.0031717)
(-0.000428489 -0.000443292 -0.00318383)
(8.61199e-07 9.05455e-05 -0.00460561)
(0.000428952 0.000156071 -0.00343249)
(-0.000405395 9.83944e-05 -0.00345177)
(-2.27644e-06 -0.000595559 -0.0034729)
(-0.00051063 0.000312391 -0.00410887)
(2.84151e-07 -0.000631569 -0.00577205)
(-0.000429053 0.000156436 -0.00343345)
(-3.33213e-07 9.07252e-05 -0.00460579)
(0.000404345 9.8582e-05 -0.00345071)
(1.58951e-05 -0.000624164 -0.00573968)
(0.000476892 0.000217355 -0.00418674)
(-3.89519e-05 0.000597201 -0.00548642)
(-0.000515622 0.000385536 -0.00400172)
(1.68611e-06 -0.000595325 -0.00347374)
(0.000509918 0.000313033 -0.00410849)
(-5.26713e-07 0.000648296 -0.00548766)
(-8.54599e-08 0.000905205 -0.00292976)
(0.000903205 0.000956093 -0.00393595)
(-0.0015525 -0.00156603 -0.00377489)
(0.00155063 -0.00156248 -0.00377051)
(-0.00153368 -0.00168161 -0.0039527)
(0.00161449 0.00121992 -0.00461017)
(-0.00165173 -0.00151341 -0.00445633)
(0.00172734 0.00138885 -0.00455913)
(-0.00172206 -0.00148705 -0.00452036)
(0.00174949 0.00143827 -0.00454389)
(-0.00174212 -0.00148121 -0.00452941)
(0.00175727 0.00145589 -0.00454282)
(-0.00174981 -0.00148802 -0.00452945)
(0.00176641 0.0014594 -0.00454795)
(-0.00175271 -0.00150942 -0.00452387)
(0.0017786 0.00145291 -0.00455806)
(-0.00174858 -0.00154495 -0.00451322)
(0.00178498 0.00143764 -0.00456415)
(-0.00171395 -0.00157895 -0.00450302)
(0.00175851 0.00140712 -0.0045059)
(-0.000942168 -0.000309879 -0.0038896)
(1.98101e-05 0.000667569 -0.00565793)
(0.000951019 -0.000212452 -0.00396419)
(2.56327e-05 -3.68558e-05 -0.00387838)
(-0.0017155 0.00121822 -0.0044527)
(0.00166813 -0.00145405 -0.00453716)
(8.65322e-06 1.40473e-05 -0.00379687)
(-0.00173385 0.00130362 -0.00454208)
(0.00170875 -0.00145921 -0.00453329)
(5.87761e-06 6.37136e-06 -0.00380905)
(-0.00172876 0.00134749 -0.00454748)
(0.00171446 -0.00143373 -0.00453562)
(3.89773e-06 2.89519e-06 -0.00380612)
(-0.00171805 0.0013677 -0.00454406)
(0.00171077 -0.00141108 -0.00453593)
(2.70739e-06 6.23504e-07 -0.00380144)
(-0.00170881 0.00136825 -0.00454205)
(0.00170265 -0.00140139 -0.0045332)
(2.82266e-06 -3.29656e-06 -0.00379562)
(-0.00169803 0.00134498 -0.00454329)
(0.00168452 -0.00140473 -0.00452282)
(4.53408e-06 -1.04529e-05 -0.00378187)
(-0.00166897 0.00127616 -0.00455879)
(0.00162523 -0.00142889 -0.00444306)
(5.15571e-06 3.34071e-05 -0.00372277)
(-0.00155242 0.00106894 -0.00465236)
(9.14607e-07 -9.8717e-05 -0.00381628)
(0.00155189 0.001068 -0.00464714)
(-0.00162625 -0.00143121 -0.00444807)
(-7.31156e-06 3.34703e-05 -0.00372279)
(-0.0016121 0.0012263 -0.00461488)
(0.00153135 -0.00167193 -0.00395172)
(-2.87936e-06 0.000671025 -0.0045854)
(-0.000910914 0.00110955 -0.00380769)
(-5.91948e-05 0.00082929 -0.00296546)
(0.000926552 0.000776214 -0.00411684)
(-0.00160781 -0.001475 -0.00358214)
(0.00155235 0.000967588 -0.00466717)
(-0.00163476 -0.00137673 -0.00446539)
(0.00164211 0.00121751 -0.00455042)
(-0.00167158 -0.00134895 -0.00454674)
(0.00166958 0.00129261 -0.00454121)
(-0.00167737 -0.00134499 -0.00454627)
(0.00168159 0.00131666 -0.00454611)
(-0.00167935 -0.00135555 -0.00454194)
(0.0016958 0.0013188 -0.00455381)
(-0.00167886 -0.00138376 -0.00453401)
(0.00171738 0.00130877 -0.00457138)
(-0.00166588 -0.00141762 -0.00450802)
(0.0017387 0.00128634 -0.00459374)
(-0.00160726 -0.00140397 -0.00446059)
(0.00172543 0.00122616 -0.00451721)
(-0.000928495 -0.000202369 -0.00391083)
(-0.000199285 0.000483056 -0.00557542)
(0.000403801 -0.000553308 -0.00412859)
(5.0939e-05 -1.04536e-05 -0.00373688)
(-0.00160151 0.00168081 -0.00479441)
(0.00144146 -0.00205702 -0.00487117)
(2.01889e-05 3.54164e-05 -0.00367404)
(-0.00157831 0.00184708 -0.00488081)
(0.00152558 -0.00201049 -0.00486195)
(2.87748e-06 1.77895e-05 -0.00368799)
(-0.00153064 0.00188172 -0.00487801)
(0.00152442 -0.00193946 -0.0048566)
(-1.89842e-06 6.85807e-06 -0.0036812)
(-0.0015123 0.00188295 -0.00486541)
(0.00151395 -0.00190335 -0.00485438)
(-2.67076e-06 1.62207e-06 -0.00367556)
(-0.00150733 0.00188289 -0.00486281)
(0.00151123 -0.00189275 -0.00485775)
(-7.71503e-06 -3.73083e-06 -0.0036723)
(-0.00150311 0.00187996 -0.00486541)
(0.00151379 -0.00189264 -0.0048573)
(-1.95217e-05 -7.84235e-06 -0.00366476)
(-0.00148262 0.00184879 -0.00488522)
(0.00149397 -0.00190928 -0.00481959)
(-4.50579e-05 4.25532e-05 -0.00361378)
(-0.00138018 0.00164408 -0.00492856)
(0.0012637 -0.00190103 -0.00423819)
(2.72403e-05 0.000667045 -0.00448431)
(-0.00045799 0.00154979 -0.00397416)
(0.000779451 0.0013772 -0.00419861)
(0.00128175 -0.000691496 -0.00366315)
(4.08693e-05 0.00131303 -0.00430738)
(0.000159499 -0.00031169 -0.00293134)
(-0.000234319 0.00024742 -0.00334563)
(0.000655784 0.00157327 -0.00380555)
(-0.00202288 -0.00136165 -0.00349348)
(0.00153486 0.00127035 -0.00477604)
(-0.0019247 -0.00119603 -0.00465123)
(-0.00129603 0.00191568 -0.00448087)
(-0.00160246 -0.00168669 -0.00445067)
(4.15958e-05 -1.33665e-05 -0.00371362)
(0.00105523 -0.00188772 -0.00461597)
(0.00116711 0.0016101 -0.00468301)
(-0.00168035 -0.00164721 -0.00363613)
(0.000649838 4.83918e-05 -0.00460495)
(-0.00150802 0.00173421 -0.00404466)
(-0.000112064 7.74128e-05 -0.00384674)
(8.07909e-05 3.35881e-05 -0.00378121)
(-0.000610436 -0.00049079 -0.00557326)
(5.22248e-05 4.8123e-05 -0.00449708)
(-2.46503e-05 -3.94101e-05 -0.00426361)
(-0.000647641 2.57481e-05 -0.00572216)
(6.60519e-05 -9.41239e-06 -0.00410195)
(-0.000104575 -3.37241e-06 -0.00382405)
(-0.00153005 0.00158552 -0.00390545)
(-0.00165942 -0.00158863 -0.00379559)
(0.00119723 0.00158974 -0.00465207)
(-0.00155251 -0.00165263 -0.00444297)
(1.99508e-05 2.67375e-07 -0.00376244)
(0.0014164 0.00170493 -0.00456203)
(-0.00154397 -0.00171586 -0.00452277)
(0.00149098 0.00173544 -0.00454571)
(-0.00154518 -0.00173495 -0.00453335)
(1.09592e-05 1.20283e-06 -0.00374022)
(0.00151848 0.00174815 -0.00454577)
(-0.00155659 -0.0017416 -0.00453354)
(0.00152347 0.00176041 -0.00455095)
(-0.00158112 -0.00174213 -0.00452766)
(5.91526e-05 1.41733e-06 -0.0037299)
(0.00151253 0.00177436 -0.00455976)
(-0.00161018 -0.00173188 -0.00451604)
(0.00148193 0.00177893 -0.00456063)
(-0.00161472 -0.00168792 -0.00451067)
(0.000333517 -2.73608e-06 -0.00370861)
(7.79692e-05 2.3011e-06 -0.00373748)
(5.0025e-05 3.80746e-06 -0.00374317)
(5.26326e-05 1.26909e-05 -0.00374353)
(2.53222e-05 7.1202e-06 -0.0037507)
(6.21433e-05 4.59539e-06 -0.00373678)
(0.00156338 0.0017903 -0.00457439)
(-0.00165228 -0.00172936 -0.00451642)
(1.27384e-05 9.1139e-06 -0.0038017)
(-0.00134014 0.00204503 -0.00455529)
(0.00110402 -0.00202011 -0.00450977)
(0.00153913 0.00180955 -0.00458499)
(-0.00162067 -0.00167088 -0.00448686)
(2.89573e-05 1.75215e-05 -0.0037821)
(-0.0014229 0.00202945 -0.00457203)
(0.000989075 -0.00192874 -0.00438965)
(0.00197672 0.00122916 -0.00488737)
(-0.000232773 -0.000855206 -0.00375209)
(3.72399e-05 -0.00136586 -0.00552913)
(-0.00164773 -9.2804e-05 -0.00335976)
(-0.00152055 -2.10858e-05 -0.00321478)
(0.00321553 -0.000493732 -0.00326931)
(-0.000199583 -0.000126863 -0.00432587)
(5.3516e-05 3.82553e-05 -0.00351274)
(9.00946e-05 0.000908782 -0.00312687)
(-0.000981489 0.00118629 -0.00456956)
(0.000224597 9.46196e-05 -0.00306081)
(0.000771897 -0.00193306 -0.00440018)
(-0.000798907 0.00146877 -0.00456364)
(6.56356e-05 1.4602e-05 -0.00305726)
(0.000828702 -0.00163977 -0.00449464)
(-0.000751729 0.00149886 -0.00453841)
(1.03895e-05 -3.26546e-06 -0.00305048)
(0.00080689 -0.00154318 -0.00453063)
(-0.000771559 0.00151851 -0.00454044)
(-1.44358e-06 6.7527e-07 -0.00304912)
(0.000771773 -0.00149082 -0.00451761)
(-0.000749004 0.00151345 -0.00451239)
(-1.99915e-05 -1.0674e-05 -0.00305139)
(0.000803415 -0.00148985 -0.00453553)
(-0.000724537 0.00157257 -0.0045122)
(-4.91645e-05 -2.69265e-05 -0.00305699)
(0.000847342 -0.00142093 -0.00452613)
(-0.000570122 0.0016059 -0.0044791)
(-8.22639e-05 -0.000100982 -0.00305472)
(0.00100177 -0.00126774 -0.00448602)
(0.000380393 0.000411486 -0.00343769)
(0.00028133 0.000618683 -0.00331445)
(-7.3975e-05 -0.000762985 -0.00412911)
(-3.85231e-05 6.42475e-06 -0.00360501)
(0.000394367 0.00124632 -0.0040176)
(-0.000173401 -0.00106076 -0.00416622)
(0.00177628 0.00124493 -0.00464532)
(-0.0018978 -0.00121713 -0.00469364)
(0.00185445 0.00123579 -0.00465108)
(-0.00189359 -0.00122279 -0.00467823)
(-0.00122593 0.00198951 -0.00453666)
(-0.00158969 -0.00174394 -0.00454592)
(-3.75882e-06 -4.12954e-06 -0.00378766)
(0.00121343 -0.00199448 -0.00455343)
(0.00153101 0.001738 -0.00455066)
(-0.00158867 -0.00173301 -0.00454044)
(-8.78924e-06 -1.04232e-05 -0.00377676)
(-0.00123095 0.00197187 -0.00452684)
(1.0397e-05 -1.11074e-07 -0.00375416)
(9.02803e-07 -4.44382e-06 -0.00355198)
(1.34069e-05 -2.90815e-06 -0.00356448)
(-1.29237e-06 -0.000114375 -0.00316902)
(2.63947e-05 2.59106e-05 -0.00369501)
(0.000101903 0.000159598 -0.00358677)
(9.43181e-05 0.000173357 -0.00344084)
(0.000171344 7.05883e-05 -0.00401125)
(-5.00366e-05 3.02002e-05 -0.00398209)
(2.71024e-05 9.98258e-05 -0.00394107)
(0.000713475 7.0702e-05 -0.00397763)
(0.00113366 -9.1048e-05 -0.00308884)
(0.000945476 0.00147405 -0.00503323)
(0.000319574 0.000472552 -0.00278764)
(0.00143748 0.000102744 -0.00374211)
(0.0005722 0.000352749 -0.00397305)
(0.000268277 7.53061e-05 -0.0038827)
(7.99858e-05 2.26353e-05 -0.00389867)
(5.12504e-05 1.57761e-05 -0.00401111)
(-2.31083e-05 5.24088e-06 -0.00395066)
(-1.46864e-05 2.92129e-06 -0.00393819)
(1.47923e-05 4.13523e-06 -0.0040166)
(2.40327e-05 4.03998e-06 -0.00389808)
(-0.000225544 -0.00111903 -0.00416221)
(-3.47795e-06 1.20496e-06 -0.00365873)
(0.000259957 0.00114203 -0.00411847)
(-0.00024003 -0.00112888 -0.00413214)
(0.00187772 0.00123253 -0.00466941)
(-0.00190207 -0.00122598 -0.00466429)
(0.00188876 0.00124451 -0.00468121)
(-0.00193909 -0.00122813 -0.00465052)
(-0.00127186 0.00201916 -0.00454475)
(-0.00162862 -0.00174536 -0.00453632)
(4.44463e-06 3.24044e-06 -0.0037983)
(0.0012035 -0.00200402 -0.00454799)
(0.00156992 0.00176784 -0.00455976)
(-0.00160246 -0.00174731 -0.00454359)
(5.20108e-07 -2.39123e-07 -0.00379291)
(-0.00123826 0.0020011 -0.00454126)
(1.80199e-05 3.87581e-06 -0.00374411)
(7.95748e-06 4.0053e-06 -0.00355097)
(2.00184e-06 -4.81894e-07 -0.00355051)
(1.37612e-06 -1.16152e-05 -0.00315409)
(3.46869e-06 -5.49287e-06 -0.00368219)
(6.16261e-06 1.73969e-05 -0.00364201)
(9.80017e-06 1.25947e-05 -0.00348674)
(7.881e-06 2.32088e-06 -0.00368203)
(2.10639e-05 5.39718e-05 -0.00356075)
(3.20942e-05 3.86958e-05 -0.00341883)
(0.000305791 0.00116697 -0.00410775)
(-5.34209e-06 5.67757e-06 -0.00365524)
(-1.99945e-06 -5.37546e-05 -0.00315785)
(-9.84139e-06 -4.66323e-06 -0.00398411)
(1.67866e-06 -7.80771e-05 -0.00400241)
(4.07104e-06 1.0093e-05 -0.0039579)
(-4.0384e-05 0.000775547 -0.00395711)
(9.3714e-05 0.00148092 -0.00373379)
(-0.00108059 0.00272215 -0.00362448)
(-2.70646e-06 0.000285315 -0.00359887)
(1.48483e-05 -4.1417e-05 -0.00316163)
(6.92859e-07 -1.92569e-05 -0.00394035)
(-1.46321e-05 -7.38657e-05 -0.00388899)
(0.00165199 -0.00150383 -0.00445382)
(-2.87668e-07 6.57442e-06 -0.00375676)
(-0.00172661 0.00139929 -0.00456273)
(0.00166879 0.00127355 -0.00455468)
(-0.00168466 -0.00140545 -0.00452652)
(-5.93199e-06 -1.03686e-05 -0.00378251)
(0.00172457 -0.00148157 -0.00451904)
(1.0504e-08 1.09706e-05 -0.00373889)
(-0.00174925 0.00144726 -0.00454594)
(0.00169926 0.00134277 -0.00454129)
(-0.00170146 -0.00140069 -0.00453453)
(-2.47085e-06 -3.14466e-06 -0.00379662)
(0.00174631 -0.00148114 -0.00453047)
(9.83397e-07 9.51142e-06 -0.0037324)
(-0.00175641 0.00145998 -0.00454319)
(0.00171212 0.00136818 -0.0045434)
(-0.00170749 -0.00140982 -0.0045338)
(1.11461e-07 8.74556e-07 -0.00380293)
(0.00175629 -0.00149372 -0.00453337)
(1.88149e-06 2.53079e-05 -0.00372787)
(-0.00176482 0.00145578 -0.00454585)
(0.00172427 0.00137197 -0.0045501)
(-0.00170804 -0.0014334 -0.00452743)
(2.57879e-06 3.40079e-06 -0.00380815)
(0.00176261 -0.001523 -0.00453245)
(1.55822e-06 7.11046e-05 -0.00372147)
(-0.00177569 0.00143227 -0.00454891)
(0.00173842 0.00136182 -0.00456207)
(-0.00169796 -0.0014649 -0.004513)
(6.20286e-06 7.22501e-06 -0.003811)
(0.00176014 -0.00156407 -0.00453057)
(-3.39653e-06 0.000173021 -0.00371167)
(-0.00177779 0.00137814 -0.00453805)
(0.00174463 0.00133984 -0.00456913)
(-0.00165519 -0.00148025 -0.00450054)
(9.84899e-06 1.53656e-05 -0.00379558)
(0.00171509 -0.00157876 -0.00453275)
(-1.51367e-05 0.00038579 -0.00369063)
(-0.00174408 0.00128933 -0.00445137)
(0.00171939 0.00128923 -0.00449411)
(-0.00094357 -0.000248277 -0.00393377)
(-1.14709e-06 -3.58206e-05 -0.00387143)
(0.000936938 -0.000287479 -0.0039344)
(-5.74815e-05 0.00339331 -0.00320992)
(-0.000119575 -0.00151572 -0.00330609)
(-0.000125682 -0.00154764 -0.00317709)
(-0.000131157 0.00250694 -0.00301022)
(-0.00164364 0.00065177 -0.00431338)
(0.000410108 0.00027069 -0.00307302)
(0.000365059 -0.00234061 -0.00414812)
(-0.00013994 -0.000482432 -0.00341103)
(-0.000288424 -0.000282343 -0.00326845)
(-0.000143848 0.00120279 -0.0042709)
(-0.00187752 -0.00125568 -0.00437911)
(0.000395492 -2.19353e-05 -0.00368132)
(-0.000480196 2.61647e-05 -0.00388249)
(-0.000804894 -0.000157235 -0.00388229)
(-0.000295048 -0.000189133 -0.0039132)
(-0.000230919 -1.94436e-05 -0.00399354)
(-0.000241683 5.01381e-05 -0.00391627)
(-0.000102888 2.90294e-05 -0.00392551)
(-4.59738e-05 1.18026e-05 -0.00401992)
(7.59123e-06 -1.54283e-05 -0.00390856)
(-1.85665e-06 6.93268e-06 -0.00401922)
(-3.72523e-05 1.10814e-05 -0.00393207)
(-4.65627e-05 3.263e-06 -0.0039038)
(-2.73024e-05 3.52498e-07 -0.00391444)
(-5.30071e-05 -3.01051e-06 -0.00393067)
(-0.00010521 -1.03218e-05 -0.00396462)
(1.86118e-05 -1.98203e-05 -0.00391698)
(0.000837867 -6.87143e-05 -0.0039204)
(0.000982447 -3.68131e-05 -0.00298295)
(0.000963424 0.000958591 -0.00407417)
(0.00111003 -0.000959011 -0.00360605)
(0.00137276 1.1522e-05 -0.00375028)
(0.00130695 6.18229e-06 -0.00376783)
(0.00102223 -0.000974078 -0.00384038)
(0.00102896 0.000959757 -0.00396824)
(0.00067133 -2.27321e-06 -0.00459711)
(-0.000597031 3.98821e-06 -0.0034657)
(0.00019271 -4.34085e-06 -0.00427029)
(-7.00549e-05 -7.27033e-05 -0.00421661)
(-4.90647e-05 -4.60733e-05 -0.00426203)
(0.000174912 0.000174035 -0.00432495)
(-0.000520512 1.88622e-05 -0.00338826)
(-1.41999e-06 0.000200276 -0.00425658)
(-8.18428e-07 -7.10391e-05 -0.00427185)
(-1.68219e-06 -8.71058e-05 -0.00425159)
(1.31712e-07 9.49057e-08 -0.00460149)
(-0.000328803 0.000320806 -0.00310946)
(-0.000374598 -0.000372911 -0.00312991)
(-0.000371246 0.000374409 -0.00312438)
(-0.000332829 -0.00031961 -0.00311941)
(0.000329944 -0.000323548 -0.00310939)
(-0.000280082 -0.000276589 -0.00309838)
(1.03978e-05 1.03203e-05 -0.00460839)
(0.000372953 0.000371282 -0.00311938)
(-0.000321826 0.000334126 -0.0031161)
(-0.000323137 -0.000333523 -0.00311719)
(1.03158e-05 -9.94163e-06 -0.00460865)
(0.000371584 -0.000374091 -0.00312459)
(-2.09568e-08 -1.56106e-08 -0.00462801)
(5.98591e-08 5.87464e-08 -0.00463337)
(1.64003e-07 2.37621e-05 -0.00462375)
(1.83576e-07 6.741e-05 -0.0041021)
(-9.82725e-06 6.03365e-05 -0.00409473)
(1.31605e-05 -0.000133753 -0.00380413)
(-6.74152e-06 2.6079e-06 -0.00375153)
(-3.71629e-06 6.75971e-07 -0.00374141)
(-4.81268e-07 3.93257e-06 -0.0037427)
(2.02379e-06 1.12844e-05 -0.0037431)
(5.07114e-06 2.74059e-05 -0.00374141)
(2.16383e-05 1.17816e-05 -0.00354852)
(1.60009e-05 9.6015e-05 -0.00315399)
(8.71153e-06 -7.54497e-05 -0.00366914)
(3.78713e-05 -8.37438e-06 -0.00362877)
(-1.06312e-05 5.46079e-05 -0.00347008)
(0.000226866 0.00120089 -0.00414058)
(-0.000323703 -0.00109568 -0.00411881)
(0.0019177 0.00126493 -0.00472222)
(-0.00197901 -0.0012463 -0.00457662)
(0.00196933 0.00127802 -0.00481999)
(-4.09865e-05 -3.06913e-05 -0.0036966)
(-0.000578543 -0.00113307 -0.00398371)
(-8.64866e-05 3.29795e-05 -0.00339834)
(0.000159372 0.00126993 -0.00417811)
(-1.71844e-05 -4.66307e-06 -0.0036896)
(-3.8293e-05 -5.55238e-05 -0.00391666)
(-2.01958e-05 1.13973e-05 -0.00399763)
(-0.000110396 7.86125e-06 -0.00389306)
(-0.000231082 1.56851e-05 -0.00388206)
(-0.000460843 1.8584e-05 -0.00388613)
(-0.00105313 -1.33883e-05 -0.00402931)
(-0.00107667 -0.000188064 -0.00397638)
(-0.0026832 0.000644472 -0.00391596)
(-0.00126674 -0.000287494 -0.00371901)
(-0.00110766 -0.0012365 -0.00356266)
(-3.77225e-05 -0.000156687 -0.00359583)
(-0.000436741 -0.000148847 -0.00373916)
(0.000343204 -0.00243557 -0.00295027)
(-0.00216822 -0.000671386 -0.00323071)
(-0.00129558 8.5618e-05 -0.00437041)
(-0.000605953 -0.000982427 -0.00395807)
(0.000982192 0.000726354 -0.00414581)
(7.9097e-05 3.3367e-05 -0.00425029)
(5.12611e-05 4.11231e-05 -0.00281522)
(-0.00102718 0.00087927 -0.00351402)
(0.00108705 0.000737578 -0.00370633)
(6.37424e-06 0.000103377 -0.00437958)
(-0.000128598 -8.25022e-05 -0.00291767)
(-0.0011285 0.000978073 -0.00366077)
(0.00109233 0.000878981 -0.00372685)
(1.9083e-06 0.000111455 -0.00440071)
(-0.000143368 -9.94146e-05 -0.00292941)
(-0.00110129 0.00088749 -0.00361476)
(0.00108872 0.00100243 -0.00377064)
(9.39388e-06 0.000103887 -0.00438434)
(-0.000234986 -0.000229136 -0.00298462)
(-0.00105077 0.000736143 -0.00357133)
(0.000776269 0.00102365 -0.00399147)
(-0.000618359 -0.000354663 -0.00545258)
(0.000506457 0.00053359 -0.00406952)
(0.000383934 -0.000465243 -0.00397102)
(0.00113355 0.000497241 -0.00499265)
(-0.000532605 -0.00196344 -0.00483945)
(-0.000308251 -0.00106646 -0.0039415)
(0.000168472 0.000192861 -0.0029826)
(0.000682536 -0.000484609 -0.00429679)
(-0.00223324 0.00105605 -0.00404001)
(-0.000124385 -6.36905e-05 -0.00378335)
(-0.00130763 -0.00173124 -0.00383013)
(0.00113912 0.000913253 -0.0038003)
(0.00104924 -1.82617e-05 -0.00286159)
(0.00100146 -0.00108461 -0.00392149)
(0.00125723 -0.00107216 -0.00440155)
(0.000608092 -0.00155881 -0.00315637)
(0.000138202 0.000656165 -0.00422069)
(0.000485832 -0.000857334 -0.00324388)
(0.000734746 -0.000548927 -0.00336351)
(0.00121422 0.000953901 -0.00454437)
(-0.000565901 -0.00197933 -0.00431203)
(0.000116676 -0.000221955 -0.00349113)
(0.000901158 0.00139237 -0.00457541)
(-0.000776102 -0.00171448 -0.00444271)
(8.68345e-07 -4.38733e-05 -0.00358582)
(0.000788836 0.00149226 -0.00454859)
(-0.000799998 -0.00157051 -0.00449917)
(-1.00411e-05 3.4951e-06 -0.00359666)
(0.00076557 0.00150455 -0.00453506)
(-0.000782339 -0.00151429 -0.00451522)
(-5.88021e-06 7.83069e-06 -0.00360362)
(0.000761014 0.00149811 -0.00452707)
(-0.000774235 -0.00149946 -0.00452087)
(-5.15902e-06 8.55905e-06 -0.00360172)
(0.00075875 0.00149743 -0.00452614)
(-0.000779316 -0.00149613 -0.00452183)
(-1.0903e-05 2.31137e-05 -0.00360913)
(0.000733253 0.00150555 -0.0045189)
(-0.0008228 -0.00148675 -0.00452491)
(-6.48955e-05 9.21599e-05 -0.00354925)
(0.000622643 0.00155316 -0.00450472)
(-0.000952859 -0.00133225 -0.00446029)
(-0.000354878 0.000374862 -0.00346046)
(-1.53871e-05 0.00129226 -0.00429521)
(-0.00128355 -0.000721617 -0.00364445)
(-0.000794694 0.0013711 -0.00419336)
(0.000463685 0.00154859 -0.00396945)
(-0.00126458 -0.00192035 -0.00423676)
(0.00139911 0.00163871 -0.00493013)
(-0.00148483 -0.00192729 -0.00481674)
(4.1699e-05 4.42756e-05 -0.00361379)
(-0.00155605 0.000964464 -0.00467596)
(0.00160526 -0.0014757 -0.00357474)
(-2.43824e-05 0.000666303 -0.00448628)
(-0.000925612 0.000772476 -0.00411516)
(5.91175e-05 0.00083629 -0.00296607)
(0.000912288 0.00110945 -0.00380287)
(-0.000902455 0.000954182 -0.00393861)
(3.20281e-06 0.000670536 -0.00458646)
(5.33679e-06 0.00129188 -0.00375607)
(1.56635e-06 0.000769351 -0.00394554)
(1.25879e-06 -6.36658e-06 -0.00395059)
(1.94035e-06 -0.000111986 -0.00399154)
(1.7972e-06 -6.26843e-05 -0.00395565)
(5.69899e-07 -3.92563e-05 -0.00396584)
(1.28334e-06 -2.36225e-05 -0.00395172)
(3.45267e-06 -4.61354e-05 -0.00394243)
(5.09825e-06 -2.43093e-05 -0.00367988)
(1.53687e-05 6.96852e-06 -0.00357154)
(2.28138e-06 2.47789e-05 -0.00342783)
(0.000246347 0.00114698 -0.0041551)
(-0.000259065 -0.0011115 -0.00415766)
(-7.50161e-06 1.85321e-08 -0.00366939)
(-1.88362e-06 1.94159e-06 -0.00366024)
(1.04788e-05 4.41564e-07 -0.00390185)
(1.06738e-06 7.02369e-08 -0.0039678)