/*--------------------------------*- C++ -*----------------------------------*\
| =========                 |                                                 |
| \\      /  F ield         | OpenFOAM: The Open Source CFD Toolbox           |
|  \\    /   O peration     | Version:  2306                                  |
|   \\  /    A nd           | Website:  www.openfoam.com                      |
|    \\/     M anipulation  |                                                 |
\*---------------------------------------------------------------------------*/
FoamFile
{
    version     2.0;
    format      ascii;
    arch        "LSB;label=32;scalar=64";
    class       volVectorField;
    location    "2.1";
    object      flux;
}
// * * * * * * * * * * * * * * * * * * * * * * * * * * * * * * * * * * * * * //

dimensions      [0 1 -1 1 0 0 0];

internalField   nonuniform List<vector> 
5322
(
(-2.12848e-06 5.4246e-06 -7.21695e-06)
(1.19082e-07 6.51344e-07 -6.59792e-06)
(1.26508e-07 1.69279e-07 -5.56606e-06)
(-9.84423e-10 6.52857e-08 -6.01769e-06)
(-8.75116e-09 1.43552e-07 -4.59348e-06)
(-7.58667e-09 1.64842e-07 -3.3816e-06)
(-5.34223e-09 1.45725e-07 -2.39842e-06)
(-3.74217e-09 1.1671e-07 -1.64367e-06)
(-2.76112e-09 9.00627e-08 -1.10021e-06)
(-1.76273e-09 6.42566e-08 -7.4423e-07)
(-9.24355e-10 2.08007e-08 -5.39457e-07)
(5.52233e-09 -9.43295e-08 -4.72887e-07)
(7.85359e-09 -9.504e-08 -3.35649e-07)
(-1.06925e-07 -8.7053e-08 -4.74676e-07)
(-1.49009e-09 -7.85762e-08 -5.27771e-07)
(2.00847e-07 1.78636e-07 -4.46704e-07)
(-1.56515e-07 2.35572e-07 -5.23135e-07)
(1.7353e-09 -2.52969e-09 -4.15225e-07)
(-1.28994e-07 1.83453e-07 -6.29583e-07)
(1.17389e-07 -2.66407e-07 -7.37898e-07)
(-1.56758e-07 2.95117e-07 -9.18585e-07)
(2.03024e-07 -3.84591e-07 -1.1026e-06)
(-2.14531e-07 4.44497e-07 -1.38731e-06)
(3.20783e-07 -5.82782e-07 -1.68008e-06)
(-3.33102e-07 6.82503e-07 -2.08926e-06)
(4.61567e-07 -8.42551e-07 -2.47065e-06)
(-4.65353e-07 9.72015e-07 -3.0181e-06)
(6.73139e-07 -1.22142e-06 -3.54522e-06)
(-6.7667e-07 1.38977e-06 -4.23949e-06)
(9.07551e-07 -1.65024e-06 -4.84633e-06)
(-8.62544e-07 1.8599e-06 -5.67313e-06)
(1.27199e-06 -2.18379e-06 -6.4141e-06)
(-9.39728e-07 2.4893e-06 -7.29769e-06)
(1.81533e-06 -2.44162e-06 -7.92798e-06)
(1.56868e-07 2.50474e-06 -8.3761e-06)
(2.68288e-06 -1.42605e-06 -7.37858e-06)
(1.90269e-06 2.86718e-06 -8.72596e-06)
(-7.53973e-07 3.49154e-06 -8.60756e-06)
(2.08814e-06 1.76619e-06 -8.86954e-06)
(-1.2432e-07 1.9848e-06 -6.50602e-06)
(-1.98204e-06 2.58023e-06 -8.21952e-06)
(1.98711e-06 2.16776e-06 -8.48495e-06)
(-1.20321e-07 2.3226e-06 -6.37841e-06)
(-2.11275e-06 2.4117e-06 -8.48827e-06)
(2.10223e-06 2.30036e-06 -8.40271e-06)
(-7.17792e-08 2.36795e-06 -6.49193e-06)
(-2.24518e-06 2.33717e-06 -8.61265e-06)
(1.97811e-06 2.49827e-06 -8.14224e-06)
(-4.64717e-08 2.4102e-06 -6.4255e-06)
(-2.35718e-06 2.21993e-06 -8.48073e-06)
(-2.34112e-06 2.8028e-06 -9.69717e-06)
(-3.36113e-06 1.24986e-06 -6.56025e-06)
(-1.11452e-06 1.46674e-06 -9.1772e-06)
(2.1233e-06 -4.51782e-06 -8.10482e-06)
(-1.40157e-07 -2.18286e-07 -7.2133e-06)
(-3.46715e-06 -2.59387e-06 -7.66922e-06)
(-1.06789e-07 1.43108e-06 -9.51995e-06)
(3.29474e-06 -3.37773e-06 -7.52082e-06)
(-3.97862e-08 -1.59409e-07 -7.22446e-06)
(-3.29406e-06 -2.93464e-06 -7.64869e-06)
(-1.42632e-08 1.45221e-06 -9.61869e-06)
(3.20895e-06 -3.3191e-06 -7.62166e-06)
(-1.67551e-08 -1.41677e-07 -7.2226e-06)
(-3.23521e-06 -2.91325e-06 -7.46189e-06)
(3.41197e-09 1.45879e-06 -9.61956e-06)
(3.16644e-06 -3.44316e-06 -7.89553e-06)
(4.73303e-08 -1.95037e-07 -7.19891e-06)
(-3.2042e-06 -2.82689e-06 -7.09854e-06)
(1.69349e-07 1.48022e-06 -9.43975e-06)
(2.64366e-06 -3.84317e-06 -8.43233e-06)
(1.54236e-07 1.14807e-07 -5.99684e-06)
(-2.52228e-06 2.98315e-06 -8.84134e-06)
(2.8648e-06 1.65513e-06 -8.41382e-06)
(-2.95211e-06 2.3211e-06 -8.28828e-06)
(2.84069e-06 1.72578e-06 -8.36672e-06)
(-2.89412e-06 2.19363e-06 -8.32658e-06)
(2.89649e-06 1.82481e-06 -8.32076e-06)
(-2.89826e-06 2.18738e-06 -8.30003e-06)
(3.30181e-06 1.86144e-06 -8.43416e-06)
(-2.42119e-06 2.61189e-06 -8.05427e-06)
(1.1384e-06 1.92071e-07 -7.83804e-06)
(-1.76234e-06 1.02038e-06 -6.35202e-06)
(-1.19042e-06 1.49192e-06 -6.58822e-06)
(1.85492e-06 2.37046e-06 -8.44388e-06)
(1.53841e-07 -1.52855e-07 -5.44031e-06)
(-8.17152e-07 -8.52642e-07 -7.47943e-06)
(1.35166e-06 3.15061e-07 -1.09434e-05)
(-3.73712e-06 5.97536e-07 -7.13185e-06)
(-1.17888e-06 1.28165e-06 -7.14304e-06)
(4.10374e-06 1.8646e-07 -6.18556e-06)
(-1.86397e-07 3.4463e-07 -7.63402e-06)
(4.03851e-08 6.14533e-08 -5.4069e-06)
(7.02603e-08 8.47191e-09 -5.69534e-06)
(4.57792e-07 8.10502e-09 -5.68544e-06)
(2.41459e-06 2.90361e-06 -7.34671e-06)
(-4.79212e-07 -1.67549e-06 -7.0745e-06)
(3.45826e-08 5.4662e-08 -6.69162e-06)
(-1.72417e-07 1.69368e-06 -7.16806e-06)
(1.39081e-06 5.22902e-08 -1.11257e-05)
(-3.30034e-06 -8.89556e-08 -6.92175e-06)
(-3.2932e-06 3.09429e-07 -7.00551e-06)
(6.75918e-06 5.49628e-08 -6.27209e-06)
(-1.74223e-07 1.8112e-06 -7.22538e-06)
(1.86835e-06 -2.82375e-06 -7.26803e-06)
(3.05055e-06 2.53415e-06 -7.93668e-06)
(6.80123e-08 6.02699e-08 -6.51063e-06)
(3.31271e-08 -5.69318e-08 -6.84038e-06)
(2.51952e-08 -7.01662e-09 -6.07489e-06)
(1.22714e-08 1.67708e-09 -4.64824e-06)
(3.97579e-09 5.52655e-09 -3.43137e-06)
(3.81835e-10 5.08474e-09 -2.43389e-06)
(-9.15425e-10 3.86964e-09 -1.6637e-06)
(-1.49727e-09 3.02781e-09 -1.10634e-06)
(-1.82391e-09 2.45298e-09 -7.41442e-07)
(1.33039e-09 -9.0001e-10 -6.13166e-07)
(-9.47632e-10 9.82046e-10 -5.3983e-07)
(-6.47613e-08 6.64264e-08 -3.87746e-07)
(-6.2422e-08 -2.52843e-08 -4.14101e-07)
(8.17005e-09 -1.05938e-08 -5.91326e-07)
(3.87405e-08 -4.89338e-08 -4.52686e-07)
(1.46188e-09 6.11086e-08 -3.92088e-07)
(5.69747e-08 -3.05682e-08 -4.64358e-07)
(-6.84349e-08 -6.15541e-08 -4.57815e-07)
(-5.34437e-09 -8.57873e-08 -6.37631e-07)
(-1.73666e-08 -9.62045e-08 -4.7873e-07)
(1.06513e-07 -3.72683e-09 -6.2503e-07)
(8.65844e-08 7.17797e-08 -4.53572e-07)
(2.28322e-08 -5.34278e-08 -4.73662e-07)
(6.81108e-08 5.21707e-09 -6.15018e-07)
(4.28217e-08 5.88451e-08 -4.52745e-07)
(3.20729e-08 -5.84214e-08 -4.64552e-07)
(7.32001e-08 2.53351e-09 -6.21062e-07)
(3.55452e-08 6.10903e-08 -4.59925e-07)
(3.82714e-08 -6.26901e-08 -4.56169e-07)
(7.44589e-08 -2.06963e-09 -6.23713e-07)
(3.07904e-08 5.68622e-08 -4.65799e-07)
(6.13048e-08 -6.84267e-08 -4.58418e-07)
(8.47232e-08 -5.61746e-09 -6.39994e-07)
(9.53755e-08 -1.73556e-08 -4.80085e-07)
(3.98868e-09 1.05265e-07 -6.26448e-07)
(-7.10535e-08 8.61952e-08 -4.55511e-07)
(3.13437e-09 -5.96555e-08 -3.93843e-07)
(4.8937e-08 3.90591e-08 -4.53387e-07)
(-6.04385e-08 3.02581e-08 -4.08745e-07)
(-6.61411e-08 -6.49248e-08 -3.88738e-07)
(1.08822e-08 8.53415e-09 -5.92059e-07)
(2.55252e-08 -6.22727e-08 -4.14628e-07)
(1.32194e-08 4.85523e-08 -4.12423e-07)
(-5.16667e-08 5.07422e-08 -3.84407e-07)
(-5.69998e-08 -5.61647e-08 -3.8743e-07)
(1.24025e-08 -7.72598e-10 -5.94541e-07)
(1.50962e-08 -5.12988e-08 -4.13045e-07)
(1.87626e-08 5.18288e-08 -4.11551e-07)
(-5.63851e-08 5.71187e-08 -3.85227e-07)
(-5.29532e-08 -5.04246e-08 -3.87375e-07)
(1.25434e-08 -1.15591e-10 -5.94036e-07)
(9.18101e-09 -4.73276e-08 -4.13189e-07)
(3.0823e-08 6.12886e-08 -4.08215e-07)
(-5.96627e-08 -2.87822e-09 -3.93163e-07)
(7.86084e-08 -1.58368e-09 -5.28278e-07)
(-1.77893e-07 2.01061e-07 -4.46507e-07)
(-2.35126e-07 -1.56267e-07 -5.24419e-07)
(2.37136e-07 1.97578e-07 -6.97832e-07)
(-3.15564e-07 -2.48299e-07 -7.9722e-07)
(-1.60758e-08 1.09045e-08 -4.60866e-07)
(-1.84276e-07 -1.27861e-07 -6.3088e-07)
(3.64644e-09 1.62897e-09 -4.15853e-07)
(1.66098e-07 7.62694e-09 -5.31921e-07)
(-3.84983e-08 -1.83042e-08 -3.43893e-07)
(1.77422e-07 5.36126e-08 -4.59418e-07)
(8.73735e-08 -1.06933e-07 -4.75763e-07)
(1.31069e-07 1.06838e-07 -4.43258e-07)
(-2.13616e-07 -1.92336e-07 -4.92832e-07)
(7.95587e-08 6.84555e-10 -5.42813e-07)
(-1.84451e-07 1.97037e-07 -4.71634e-07)
(1.41287e-07 -2.22443e-07 -6.61857e-07)
(1.83621e-07 2.31597e-07 -6.56288e-07)
(-2.60805e-07 -2.78738e-07 -7.45625e-07)
(1.8298e-08 1.47098e-09 -5.69546e-07)
(-2.21677e-07 2.75297e-07 -7.45103e-07)
(2.39157e-07 -3.41689e-07 -9.2709e-07)
(2.97396e-07 3.5456e-07 -9.27766e-07)
(-3.84186e-07 -4.31755e-07 -1.12139e-06)
(1.72716e-08 2.06988e-09 -8.45305e-07)
(-3.22115e-07 4.23432e-07 -1.12345e-06)
(3.79172e-07 -5.24277e-07 -1.39364e-06)
(4.63507e-07 5.42372e-07 -1.39439e-06)
(-5.79923e-07 -6.59658e-07 -1.69627e-06)
(2.72397e-08 2.64633e-09 -1.28345e-06)
(-4.84353e-07 6.46872e-07 -1.69887e-06)
(5.77809e-07 -7.90084e-07 -2.08557e-06)
(7.0255e-07 8.16615e-07 -2.08668e-06)
(-8.62791e-07 -9.79316e-07 -2.50619e-06)
(3.93536e-08 3.875e-09 -1.91355e-06)
(-7.21033e-07 9.60917e-07 -2.51087e-06)
(8.40385e-07 -1.15516e-06 -3.03158e-06)
(1.02537e-06 1.19382e-06 -3.03494e-06)
(-1.25156e-06 -1.40192e-06 -3.5747e-06)
(5.37912e-08 6.1038e-09 -2.76004e-06)
(-1.04818e-06 1.37509e-06 -3.58374e-06)
(1.16339e-06 -1.6306e-06 -4.25149e-06)
(1.43416e-06 1.68482e-06 -4.25999e-06)
(-1.76036e-06 -1.92507e-06 -4.90634e-06)
(7.26256e-08 8.90036e-09 -3.83257e-06)
(-1.47208e-06 1.88293e-06 -4.92171e-06)
(1.52824e-06 -2.20823e-06 -5.72862e-06)
(1.91665e-06 2.27865e-06 -5.74635e-06)
(-2.36434e-06 -2.49324e-06 -6.47417e-06)
(1.00593e-07 1.25621e-08 -5.09566e-06)
(-1.95125e-06 2.42388e-06 -6.50024e-06)
(1.8656e-06 -2.83186e-06 -7.29613e-06)
(2.32404e-06 2.8556e-06 -7.31443e-06)
(-4.24312e-07 -1.68033e-06 -7.15535e-06)
(1.33065e-06 -1.15248e-08 -1.1126e-05)
(-3.26794e-06 -1.83825e-07 -6.9198e-06)
(-3.33286e-06 9.0899e-08 -6.89836e-06)
(6.78995e-06 -5.71615e-08 -6.29182e-06)
(-2.88679e-07 -2.70534e-09 -8.61253e-06)
(-3.08625e-07 1.59019e-08 -8.59254e-06)
(8.17658e-08 2.51721e-08 -5.69575e-06)
(4.97218e-07 1.90049e-09 -5.69234e-06)
(2.40366e-06 2.90699e-06 -7.3318e-06)
(-3.5563e-07 -1.67343e-06 -7.13304e-06)
(5.89926e-08 8.41624e-09 -6.63099e-06)
(-4.22789e-07 2.00989e-06 -7.25119e-06)
(1.27572e-06 -3.07502e-07 -1.11146e-05)
(-3.32344e-06 -1.30921e-07 -6.96452e-06)
(-3.27748e-06 1.13055e-07 -6.89107e-06)
(6.74867e-06 -1.12991e-07 -6.30708e-06)
(-2.26369e-07 1.68337e-06 -7.12596e-06)
(1.86741e-06 -2.86319e-06 -7.30359e-06)
(3.17149e-08 1.787e-08 -6.68682e-06)
(5.30681e-08 1.27041e-08 -6.68892e-06)
(3.00043e-08 3.57501e-08 -6.06367e-06)
(1.61105e-08 1.94148e-08 -4.65002e-06)
(6.24272e-09 8.02111e-09 -3.43598e-06)
(1.46576e-09 2.38844e-09 -2.43735e-06)
(-4.54934e-10 3.5199e-12 -1.66576e-06)
(-1.32334e-09 -1.14212e-09 -1.10745e-06)
(-1.66092e-09 -1.68382e-09 -7.41997e-07)
(1.31158e-09 1.32982e-09 -6.13583e-07)
(-9.09414e-10 -9.22892e-10 -5.40391e-07)
(5.0742e-08 -5.30801e-08 -3.87008e-07)
(-5.665e-08 -5.68494e-08 -3.86472e-07)
(5.67427e-08 -5.69833e-08 -3.86201e-07)
(-5.06767e-08 -5.3083e-08 -3.86702e-07)
(2.35408e-10 1.28471e-08 -5.93986e-07)
(5.05602e-08 1.71972e-08 -4.11467e-07)
(-4.71239e-08 9.97068e-09 -4.13141e-07)
(-4.55368e-11 -6.96e-08 -4.03946e-07)
(-5.67376e-08 3.33586e-08 -4.64702e-07)
(9.68993e-11 -7.08309e-08 -6.78684e-07)
(-5.02908e-08 1.71381e-08 -4.11538e-07)
(1.14564e-10 1.28737e-08 -5.94227e-07)
(4.73036e-08 1.00948e-08 -4.13381e-07)
(1.91264e-09 -6.99869e-08 -6.74526e-07)
(5.28525e-08 2.28205e-08 -4.73067e-07)
(-4.42854e-09 6.63198e-08 -6.13932e-07)
(-5.74378e-08 4.16297e-08 -4.5293e-07)
(1.03546e-10 -6.96034e-08 -4.04202e-07)
(5.67618e-08 3.34651e-08 -4.64807e-07)
(-1.2315e-11 7.20303e-08 -6.14057e-07)
(5.33374e-11 1.00835e-07 -3.31567e-07)
(1.04082e-07 1.08867e-07 -4.57547e-07)
(-1.91835e-07 -1.94414e-07 -4.71921e-07)
(1.9195e-07 -1.94126e-07 -4.71407e-07)
(-1.89264e-07 -2.0848e-07 -4.9311e-07)
(2.28526e-07 1.74339e-07 -6.56246e-07)
(-2.75207e-07 -2.50571e-07 -7.45952e-07)
(3.49893e-07 2.82125e-07 -9.28012e-07)
(-4.25968e-07 -3.66525e-07 -1.12171e-06)
(5.35014e-07 4.39603e-07 -1.39513e-06)
(-6.50663e-07 -5.51842e-07 -1.69648e-06)
(8.05453e-07 6.66611e-07 -2.08805e-06)
(-9.65978e-07 -8.20129e-07 -2.50646e-06)
(1.17762e-06 9.73308e-07 -3.03734e-06)
(-1.38261e-06 -1.18952e-06 -3.57488e-06)
(1.66248e-06 1.36252e-06 -4.26456e-06)
(-1.8984e-06 -1.67578e-06 -4.90512e-06)
(2.25068e-06 1.82709e-06 -5.7554e-06)
(-2.4604e-06 -2.26199e-06 -6.46737e-06)
(2.87272e-06 2.32225e-06 -7.36547e-06)
(-1.66325e-06 -4.25489e-07 -7.06924e-06)
(4.15532e-08 1.41459e-06 -1.11307e-05)
(1.68566e-06 -2.53375e-07 -7.19945e-06)
(4.88603e-08 4.18384e-08 -6.69055e-06)
(-2.79728e-06 2.01087e-06 -7.28031e-06)
(2.39808e-06 -2.08179e-06 -6.51827e-06)
(1.4292e-08 1.06743e-07 -5.09957e-06)
(-2.18193e-06 1.65633e-06 -5.72865e-06)
(1.85997e-06 -1.58382e-06 -4.92985e-06)
(8.78846e-09 7.55489e-08 -3.83552e-06)
(-1.61137e-06 1.26226e-06 -4.255e-06)
(1.35737e-06 -1.13161e-06 -3.58694e-06)
(5.39456e-09 5.5184e-08 -2.76187e-06)
(-1.14163e-06 9.10739e-07 -3.03471e-06)
(9.48218e-07 -7.79225e-07 -2.51204e-06)
(3.21174e-09 3.99766e-08 -1.91456e-06)
(-7.80842e-07 6.25509e-07 -2.08777e-06)
(6.38254e-07 -5.23095e-07 -1.69919e-06)
(2.02926e-09 2.74724e-08 -1.284e-06)
(-5.18186e-07 4.1067e-07 -1.39539e-06)
(4.17845e-07 -3.46761e-07 -1.12319e-06)
(1.52475e-09 1.73428e-08 -8.45574e-07)
(-3.3782e-07 2.59295e-07 -9.28672e-07)
(2.71511e-07 -2.36846e-07 -7.44506e-07)
(1.14318e-09 1.82155e-08 -5.69549e-07)
(-2.19595e-07 1.53025e-07 -6.62876e-07)
(3.08104e-10 -1.47074e-08 -5.06086e-07)
(2.20095e-07 1.53004e-07 -6.62446e-07)
(-2.70801e-07 -2.36873e-07 -7.45049e-07)
(-8.89637e-10 1.82313e-08 -5.69679e-07)
(-2.27708e-07 1.7511e-07 -6.5682e-07)
(1.89403e-07 -2.07506e-07 -4.93273e-07)
(-4.02685e-10 7.96075e-08 -5.43149e-07)
(-1.04816e-07 1.26673e-07 -4.42765e-07)
(-6.80333e-09 9.22151e-08 -3.35346e-07)
(1.06414e-07 8.81691e-08 -4.77506e-07)
(-1.98727e-07 -1.82483e-07 -4.47638e-07)
(2.19395e-07 1.38666e-07 -6.63952e-07)
(-2.71229e-07 -2.25791e-07 -7.45262e-07)
(3.33088e-07 2.48188e-07 -9.26801e-07)
(-4.11823e-07 -3.29266e-07 -1.12544e-06)
(5.11759e-07 3.97219e-07 -1.39635e-06)
(-6.25301e-07 -4.97431e-07 -1.70072e-06)
(7.73011e-07 6.06825e-07 -2.09414e-06)
(-9.26182e-07 -7.43073e-07 -2.51268e-06)
(1.1348e-06 8.86168e-07 -3.04993e-06)
(-1.32318e-06 -1.08616e-06 -3.58457e-06)
(1.61345e-06 1.23918e-06 -4.29293e-06)
(-1.80766e-06 -1.53409e-06 -4.90532e-06)
(2.20524e-06 1.65549e-06 -5.81858e-06)
(-2.3093e-06 -2.00899e-06 -6.4158e-06)
(2.8266e-06 2.04176e-06 -7.40775e-06)
(-1.64356e-06 -2.40197e-07 -7.11665e-06)
(-4.01658e-07 1.05638e-06 -1.10056e-05)
(6.92197e-07 -8.5625e-07 -7.56362e-06)
(7.76303e-08 8.52987e-08 -6.48602e-06)
(-2.63176e-06 2.82191e-06 -7.94682e-06)
(2.10108e-06 -2.93281e-06 -7.05264e-06)
(1.77807e-08 1.38066e-07 -4.95667e-06)
(-1.99348e-06 2.3945e-06 -6.22074e-06)
(1.67704e-06 -2.16076e-06 -5.29834e-06)
(-6.61552e-09 8.88477e-08 -3.7238e-06)
(-1.42663e-06 1.79826e-06 -4.59507e-06)
(1.2138e-06 -1.50822e-06 -3.83453e-06)
(-1.05644e-08 5.9201e-08 -2.67522e-06)
(-1.00286e-06 1.27946e-06 -3.26516e-06)
(8.41744e-07 -1.03188e-06 -2.67849e-06)
(-9.04084e-09 4.12816e-08 -1.85233e-06)
(-6.8632e-07 8.78814e-07 -2.24343e-06)
(5.67059e-07 -6.91363e-07 -1.81012e-06)
(-8.26813e-09 2.78058e-08 -1.24159e-06)
(-4.5586e-07 5.84927e-07 -1.49622e-06)
(3.75005e-07 -4.56096e-07 -1.1954e-06)
(-7.95649e-09 1.79895e-08 -8.17516e-07)
(-2.97286e-07 3.80193e-07 -9.92363e-07)
(2.48375e-07 -3.09624e-07 -7.9742e-07)
(-8.92287e-09 1.94461e-08 -5.50174e-07)
(-1.93366e-07 2.34906e-07 -6.97766e-07)
(1.5532e-07 -2.32088e-07 -5.2478e-07)
(1.93957e-09 7.88093e-08 -5.28876e-07)
(-5.26371e-08 1.77171e-07 -4.59978e-07)
(8.79015e-08 1.55364e-07 -4.75835e-07)
(1.45492e-07 -7.77023e-08 -4.24468e-07)
(-3.23487e-09 1.66838e-07 -5.33251e-07)
(1.59904e-08 -3.83206e-08 -3.43321e-07)
(-2.68652e-08 2.45028e-08 -3.92452e-07)
(8.03059e-08 1.91139e-07 -4.70407e-07)
(-2.4836e-07 -1.67111e-07 -4.37249e-07)
(2.16007e-07 1.76949e-07 -6.76183e-07)
(-3.16348e-07 -1.97935e-07 -7.72499e-07)
(-2.1312e-07 3.17889e-07 -7.46873e-07)
(-2.65351e-07 -2.80938e-07 -7.44814e-07)
(1.93516e-08 -2.58446e-09 -5.66517e-07)
(1.4978e-07 -2.66338e-07 -6.55424e-07)
(1.66754e-07 2.27921e-07 -6.66801e-07)
(-2.08943e-07 -2.04013e-07 -4.54904e-07)
(7.64759e-08 5.08335e-09 -5.43601e-07)
(-1.85529e-07 2.1285e-07 -5.02959e-07)
(-1.67526e-08 8.8249e-09 -5.07532e-07)
(7.0494e-09 1.75648e-09 -4.95796e-07)
(-7.04155e-08 -5.66577e-08 -6.51167e-07)
(5.70653e-09 5.28991e-09 -5.05839e-07)
(-2.95197e-09 -4.47873e-09 -4.80497e-07)
(-7.29113e-08 3.00911e-09 -6.72745e-07)
(1.84729e-09 -1.46499e-09 -5.39402e-07)
(-1.6058e-08 -6.44532e-10 -5.0681e-07)
(-1.9023e-07 1.96197e-07 -4.88135e-07)
(-2.06382e-07 -1.96495e-07 -4.7471e-07)
(1.71211e-07 2.25413e-07 -6.63022e-07)
(-2.57783e-07 -2.75496e-07 -7.44786e-07)
(-7.98955e-09 4.04793e-10 -6.91407e-07)
(2.87747e-07 3.46189e-07 -9.29309e-07)
(-3.81302e-07 -4.24197e-07 -1.12335e-06)
(4.55405e-07 5.31607e-07 -1.39603e-06)
(-5.76632e-07 -6.47675e-07 -1.69915e-06)
(-2.72992e-08 1.9161e-09 -1.55069e-06)
(6.94714e-07 8.02264e-07 -2.0895e-06)
(-8.59233e-07 -9.60996e-07 -2.51035e-06)
(1.01552e-06 1.17509e-06 -3.03963e-06)
(-1.24766e-06 -1.37342e-06 -3.58004e-06)
(-1.82264e-09 4.08126e-09 -3.21131e-06)
(1.41835e-06 1.66064e-06 -4.26675e-06)
(-1.74819e-06 -1.8791e-06 -4.91044e-06)
(1.88327e-06 2.24414e-06 -5.75069e-06)
(-2.31434e-06 -2.42334e-06 -6.4799e-06)
(4.79307e-07 -4.101e-09 -5.69407e-06)
(8.06787e-08 4.3365e-09 -5.69713e-06)
(2.07499e-08 6.92206e-09 -4.37219e-06)
(2.55272e-08 1.97311e-08 -4.37692e-06)
(-1.3604e-08 1.00625e-08 -3.23013e-06)
(1.65857e-09 1.02489e-08 -3.22106e-06)
(1.47083e-06 1.67816e-06 -4.28886e-06)
(-1.79462e-06 -1.87849e-06 -4.91585e-06)
(8.432e-08 8.63905e-09 -3.83673e-06)
(-1.45586e-06 2.23191e-06 -4.9679e-06)
(1.41928e-06 -2.56134e-06 -5.718e-06)
(1.96585e-06 2.28881e-06 -5.79518e-06)
(-2.32328e-06 -2.40058e-06 -6.4495e-06)
(1.30715e-07 2.25569e-08 -5.09473e-06)
(-2.04292e-06 2.93008e-06 -6.59652e-06)
(1.65083e-06 -3.17176e-06 -7.21714e-06)
(3.31477e-06 2.03751e-06 -8.14181e-06)
(-2.82907e-07 -1.53858e-06 -6.9372e-06)
(1.59523e-07 -2.83562e-06 -1.1163e-05)
(-3.58294e-06 -2.17858e-07 -7.12634e-06)
(-3.3292e-06 -2.27698e-09 -6.76053e-06)
(6.45087e-06 -1.01798e-06 -6.51302e-06)
(-4.36297e-07 -2.73805e-07 -8.4023e-06)
(6.61509e-08 4.31573e-08 -5.40388e-06)
(1.19526e-07 1.49671e-06 -4.90735e-06)
(-1.55828e-06 1.84153e-06 -6.78413e-06)
(3.07593e-07 1.20492e-07 -4.20694e-06)
(9.18859e-07 -2.4839e-06 -5.72791e-06)
(-9.54957e-07 1.6684e-06 -5.01461e-06)
(6.32053e-08 -3.29871e-09 -3.1061e-06)
(7.2823e-07 -1.52629e-06 -4.26935e-06)
(-6.49287e-07 1.21844e-06 -3.58572e-06)
(2.31266e-09 -2.04424e-08 -2.21924e-06)
(4.98823e-07 -1.01288e-06 -3.05236e-06)
(-4.63314e-07 8.57861e-07 -2.50064e-06)
(-5.91182e-09 -1.42892e-08 -1.5359e-06)
(3.20343e-07 -6.66991e-07 -2.08936e-06)
(-3.07617e-07 5.77155e-07 -1.67463e-06)
(-1.11549e-08 -1.4279e-08 -1.02846e-06)
(2.21768e-07 -4.42228e-07 -1.39475e-06)
(-1.97633e-07 3.94311e-07 -1.10181e-06)
(-1.43757e-08 -1.29547e-08 -6.77448e-07)
(1.54803e-07 -2.77227e-07 -9.15778e-07)
(-1.07887e-07 2.69677e-07 -7.32446e-07)
(-1.55484e-08 -1.90235e-08 -4.59567e-07)
(1.33387e-07 -1.74086e-07 -6.31977e-07)
(4.68499e-08 4.48026e-08 -4.48535e-07)
(3.31515e-08 7.31374e-08 -4.31065e-07)
(-6.17859e-09 -1.113e-07 -5.80651e-07)
(-3.07047e-09 -5.65816e-09 -5.43701e-07)
(6.80369e-08 1.97525e-07 -6.58481e-07)
(-2.86222e-08 -2.19578e-07 -8.39853e-07)
(3.57669e-07 2.4926e-07 -9.4099e-07)
(-4.64619e-07 -3.00537e-07 -1.15867e-06)
(5.65547e-07 3.75988e-07 -1.42583e-06)
(-7.03031e-07 -4.57576e-07 -1.74899e-06)
(-4.54328e-07 7.42389e-07 -1.69698e-06)
(-5.92434e-07 -6.5177e-07 -1.70308e-06)
(2.77214e-08 -2.93874e-09 -1.28099e-06)
(3.71729e-07 -6.10158e-07 -1.39877e-06)
(4.6781e-07 5.3175e-07 -1.3979e-06)
(-3.91338e-07 -4.28398e-07 -1.12628e-06)
(1.77241e-08 -3.25815e-09 -8.43288e-07)
(-3.01369e-07 4.86293e-07 -1.12006e-06)
(-1.26603e-08 2.05945e-09 -1.03093e-06)
(-6.38287e-09 -7.71156e-09 -9.84863e-07)
(-1.60999e-09 -4.38483e-09 -6.57625e-07)
(-6.24846e-09 -1.64163e-08 -5.76802e-07)
(-9.50454e-09 -3.24485e-08 -6.87826e-07)
(1.59949e-08 6.56432e-09 -6.4905e-07)
(1.09469e-08 1.54479e-08 -6.20586e-07)
(3.33344e-09 3.97334e-09 -7.33076e-07)
(-5.68093e-08 1.10503e-08 -7.40673e-07)
(-1.70873e-08 1.45391e-08 -5.38515e-07)
(8.62145e-08 7.86024e-09 -4.74728e-07)
(1.26124e-07 -1.04719e-08 -3.48292e-07)
(1.07033e-07 1.67885e-07 -5.79865e-07)
(3.74669e-08 5.3513e-08 -3.25644e-07)
(1.77036e-07 1.008e-08 -4.63069e-07)
(6.51443e-08 4.19374e-08 -5.29418e-07)
(5.41877e-08 3.75549e-10 -6.04533e-07)
(4.21925e-08 -1.38035e-08 -8.80213e-07)
(-3.22441e-08 -9.48772e-09 -1.10159e-06)
(-8.63235e-08 1.16888e-08 -1.09699e-06)
(-1.24119e-07 1.66314e-08 -1.6454e-06)
(-6.10459e-08 -1.60945e-08 -1.66668e-06)
(4.60616e-08 -2.66175e-08 -1.33056e-06)
(-6.04451e-08 -3.48994e-07 -1.27573e-06)
(7.28439e-09 -1.49192e-08 -1.23461e-06)
(1.09608e-07 4.10953e-07 -1.53383e-06)
(-9.79522e-08 -5.31278e-07 -1.90491e-06)
(8.61122e-07 5.64045e-07 -2.14861e-06)
(-1.04716e-06 -6.78809e-07 -2.58235e-06)
(1.26402e-06 8.30344e-07 -3.13626e-06)
(-1.53064e-06 -9.72804e-07 -3.68549e-06)
(-1.0015e-06 1.59811e-06 -3.59699e-06)
(-1.2851e-06 -1.37792e-06 -3.58916e-06)
(5.76099e-08 8.05303e-10 -2.75996e-06)
(8.06765e-07 -1.33784e-06 -3.04526e-06)
(1.0486e-06 1.18044e-06 -3.04964e-06)
(-8.84035e-07 -9.656e-07 -2.5163e-06)
(4.07391e-08 -1.9947e-09 -1.91152e-06)
(-6.80308e-07 1.10621e-06 -2.5133e-06)
(-1.92068e-08 7.3274e-09 -2.27952e-06)
(-6.92119e-09 -9.65482e-09 -2.17043e-06)
(-8.61787e-09 -9.65375e-09 -1.48146e-06)
(-1.20623e-08 5.29758e-09 -1.30763e-06)
(-2.99265e-08 -9.37203e-08 -1.54267e-06)
(-2.91539e-10 -4.44298e-08 -1.50928e-06)
(-7.51246e-09 -3.14473e-08 -1.44159e-06)
(-2.03616e-08 -6.16717e-08 -1.02474e-06)
(1.91453e-09 -2.18038e-08 -9.74798e-07)
(-8.12806e-10 -1.57774e-08 -9.33246e-07)
(8.27625e-08 2.76476e-07 -1.00612e-06)
(4.25417e-09 -9.02027e-09 -8.11116e-07)
(-9.48481e-09 -7.8781e-09 -8.66577e-07)
(-1.46541e-09 3.01432e-08 -9.0174e-07)
(2.4497e-09 -5.9577e-08 -7.47316e-07)
(1.19857e-09 -1.88979e-08 -5.42298e-07)
(-5.0016e-09 9.52989e-08 -4.74278e-07)
(1.09688e-08 1.78603e-07 -4.60733e-07)
(-1.26188e-07 3.24158e-07 -4.3514e-07)
(-5.86941e-09 2.2054e-08 -4.92942e-07)
(-2.21787e-09 -2.98446e-09 -4.14674e-07)
(-7.26484e-10 1.50736e-08 -6.15266e-07)
(-1.68076e-09 3.99179e-09 -6.11467e-07)
(2.76132e-07 -2.49269e-07 -7.45949e-07)
(1.18591e-09 -9.25916e-09 -6.89349e-07)
(-3.4869e-07 2.83926e-07 -9.28455e-07)
(3.38987e-07 2.59041e-07 -9.28392e-07)
(-4.16188e-07 -3.46291e-07 -1.12354e-06)
(-6.41289e-10 1.74e-08 -8.45927e-07)
(4.28308e-07 -3.65725e-07 -1.12227e-06)
(2.38159e-09 -1.64351e-08 -1.02941e-06)
(-5.33083e-07 4.41871e-07 -1.39551e-06)
(5.20832e-07 4.10655e-07 -1.39586e-06)
(-6.3496e-07 -5.21875e-07 -1.69885e-06)
(2.4859e-10 2.76354e-08 -1.28483e-06)
(6.55389e-07 -5.52923e-07 -1.6989e-06)
(3.87388e-09 -2.47987e-08 -1.54813e-06)
(-8.02129e-07 6.67935e-07 -2.08842e-06)
(7.86275e-07 6.26837e-07 -2.09038e-06)
(-9.42071e-07 -7.77296e-07 -2.50981e-06)
(1.74397e-09 4.03325e-08 -1.91636e-06)
(9.74898e-07 -8.2533e-07 -2.51264e-06)
(6.18046e-09 -2.31223e-08 -2.26922e-06)
(-1.17237e-06 9.70503e-07 -3.03714e-06)
(1.15186e-06 9.16028e-07 -3.04203e-06)
(-1.34657e-06 -1.1301e-06 -3.57941e-06)
(4.4824e-09 5.60165e-08 -2.76518e-06)
(1.39846e-06 -1.20357e-06 -3.58861e-06)
(8.61872e-09 1.42521e-08 -3.20946e-06)
(-1.65472e-06 1.34361e-06 -4.25915e-06)
(1.62849e-06 1.2796e-06 -4.27333e-06)
(-1.8425e-06 -1.58953e-06 -4.9072e-06)
(9.64027e-09 7.72995e-08 -3.84021e-06)
(1.9209e-06 -1.70077e-06 -4.93408e-06)
(4.87878e-09 1.55249e-07 -4.36637e-06)
(-2.2372e-06 1.75352e-06 -5.72798e-06)
(2.2033e-06 1.70696e-06 -5.76748e-06)
(-2.37644e-06 -2.1208e-06 -6.46586e-06)
(1.56071e-08 1.09563e-07 -5.10063e-06)
(2.47012e-06 -2.26452e-06 -6.51967e-06)
(-1.91138e-08 5.72619e-07 -5.67872e-06)
(-2.84625e-06 2.13005e-06 -7.28015e-06)
(2.80639e-06 2.1298e-06 -7.34832e-06)
(-1.67127e-06 -3.19142e-07 -7.14746e-06)
(-3.66049e-09 4.32776e-08 -6.67883e-06)
(1.65751e-06 -3.8574e-07 -7.1508e-06)
(-1.15361e-07 6.75378e-06 -6.34179e-06)
(-2.70355e-07 -3.2832e-06 -6.93716e-06)
(-2.19123e-07 -3.38848e-06 -6.68783e-06)
(-3.23381e-07 5.04045e-06 -6.06167e-06)
(-3.28812e-06 1.32849e-06 -8.32515e-06)
(7.00174e-07 4.76326e-07 -5.51556e-06)
(4.7602e-07 -4.00306e-06 -7.14956e-06)
(-2.561e-07 -9.28251e-07 -5.45105e-06)
(-5.15616e-07 -5.62076e-07 -5.21669e-06)
(-1.77561e-07 1.74807e-06 -6.36639e-06)
(-2.72689e-06 -1.83338e-06 -6.37619e-06)
(6.18753e-07 -3.49525e-08 -5.72049e-06)
(-1.06532e-06 7.71582e-08 -6.11809e-06)
(-1.46395e-06 -3.31307e-07 -6.1701e-06)
(-3.04076e-07 -3.76003e-07 -5.45959e-06)
(-4.4201e-07 -7.51586e-08 -4.78916e-06)
(-5.69128e-07 1.01238e-07 -4.69361e-06)
(-3.07022e-07 5.59001e-08 -3.42479e-06)
(-1.63346e-07 -2.16263e-08 -3.49466e-06)
(7.78845e-08 -6.3611e-08 -2.87558e-06)
(-9.27643e-08 -2.07295e-08 -2.45385e-06)
(-1.85753e-07 2.85567e-08 -2.41283e-06)
(-1.73798e-07 7.96661e-09 -2.39502e-06)
(-1.15901e-07 4.13665e-09 -1.63762e-06)
(-8.46626e-08 1.80472e-09 -1.0957e-06)
(-6.15414e-08 -4.33397e-10 -7.41812e-07)
(-1.75925e-08 -2.31813e-09 -5.37464e-07)
(1.02347e-07 -8.7586e-09 -4.70433e-07)
(1.09408e-07 -4.32308e-09 -3.37096e-07)
(1.09488e-07 1.10224e-07 -4.72719e-07)
(1.25973e-07 -1.10237e-07 -4.17987e-07)
(1.65073e-07 1.06242e-09 -4.6322e-07)
(1.57505e-07 7.83397e-10 -4.66361e-07)
(1.16403e-07 -1.12209e-07 -4.46498e-07)
(1.17233e-07 1.10533e-07 -4.61262e-07)
(7.94545e-08 -2.62549e-10 -5.44437e-07)
(-6.9992e-08 4.35943e-10 -4.03297e-07)
(2.21486e-08 -4.44734e-10 -4.95365e-07)
(-8.02044e-09 -8.29694e-09 -4.77419e-07)
(-5.58045e-09 -5.26698e-09 -4.80564e-07)
(2.01169e-08 2.00468e-08 -4.99395e-07)
(-6.09884e-08 1.47296e-09 -3.92945e-07)
(-1.29659e-10 2.30447e-08 -4.93744e-07)
(-5.40886e-11 -8.09949e-09 -4.81761e-07)
(-1.40465e-10 -9.98803e-09 -4.81627e-07)
(1.13971e-10 -2.49016e-10 -5.4472e-07)
(-3.88426e-08 3.78168e-08 -3.79577e-07)
(-4.46529e-08 -4.4438e-08 -3.82777e-07)
(-4.43906e-08 4.49452e-08 -3.82166e-07)
(-3.91828e-08 -3.73329e-08 -3.8043e-07)
(3.91196e-08 -3.79247e-08 -3.79315e-07)
(-3.22526e-08 -3.18542e-08 -3.76982e-07)
(1.45155e-09 1.44746e-09 -5.99712e-07)
(4.48641e-08 4.46766e-08 -3.81608e-07)
(-3.7712e-08 3.96188e-08 -3.80118e-07)
(-3.77433e-08 -3.925e-08 -3.80213e-07)
(1.47276e-09 -1.0934e-09 -5.99942e-07)
(4.45845e-08 -4.46952e-08 -3.82187e-07)
(9.5629e-11 1.11409e-10 -5.48855e-07)
(2.1174e-10 2.42899e-10 -6.19897e-07)
(2.35043e-10 1.873e-09 -6.16477e-07)
(2.12283e-10 2.02167e-09 -5.39949e-07)
(-1.69759e-09 1.42613e-09 -5.38152e-07)
(1.3518e-09 -1.89667e-08 -5.03704e-07)
(-6.58095e-10 -8.04727e-09 -6.93087e-07)
(-2.83088e-10 -1.47519e-08 -1.03765e-06)
(7.78281e-10 -2.03075e-08 -1.56055e-06)
(2.9633e-09 -2.17258e-08 -2.28414e-06)
(7.31035e-09 -9.73673e-09 -3.22278e-06)
(5.75671e-09 -3.88284e-09 -3.06611e-06)
(-6.07119e-09 1.05814e-07 -2.72696e-06)
(-4.63078e-08 -2.35875e-07 -3.20872e-06)
(2.71412e-08 -9.95567e-08 -3.14308e-06)
(-2.97277e-08 -1.9505e-08 -3.00191e-06)
(2.00798e-07 9.30656e-07 -3.28117e-06)
(-2.81597e-07 -1.0592e-06 -3.90139e-06)
(1.80978e-06 1.18638e-06 -4.44846e-06)
(-2.16223e-06 -1.3654e-06 -5.01198e-06)
(2.53415e-06 1.62411e-06 -6.16126e-06)
(-2.59899e-08 -6.95328e-08 -5.09148e-06)
(-7.23423e-07 -1.51101e-06 -5.17556e-06)
(-1.35766e-07 -5.25974e-08 -4.05571e-06)
(2.01053e-07 1.37476e-06 -4.60473e-06)
(4.382e-09 -3.43864e-08 -3.75376e-06)
(5.42823e-08 -1.31527e-07 -4.03635e-06)
(8.95834e-08 2.18678e-08 -4.10013e-06)
(-2.8829e-07 1.55568e-08 -3.38853e-06)
(-5.16822e-07 3.00001e-08 -4.62099e-06)
(-9.97293e-07 3.50921e-08 -6.06762e-06)
(-2.30833e-06 -3.10258e-08 -7.78457e-06)
(-2.37547e-06 -3.78731e-07 -7.75708e-06)
(-5.45077e-06 1.30147e-06 -7.78781e-06)
(-2.23746e-06 -6.20419e-07 -6.65206e-06)
(-1.9121e-06 -2.199e-06 -6.13998e-06)
(-3.59082e-08 -3.36337e-07 -6.46727e-06)
(-7.40153e-07 -4.02836e-07 -7.16242e-06)
(6.79239e-07 -5.10985e-06 -6.05348e-06)
(-4.7655e-06 -1.44396e-06 -6.90571e-06)
(-2.90223e-06 1.87413e-07 -9.95782e-06)
(-1.40631e-06 -2.15177e-06 -8.98754e-06)
(2.0884e-06 1.55673e-06 -8.78324e-06)
(1.66988e-07 7.74155e-08 -9.07985e-06)
(9.04108e-08 7.05454e-08 -5.78933e-06)
(-2.13955e-06 1.8813e-06 -7.36743e-06)
(2.25354e-06 1.57464e-06 -7.72855e-06)
(1.49089e-08 2.02975e-07 -9.28182e-06)
(-2.78728e-07 -1.81516e-07 -5.95538e-06)
(-2.33552e-06 2.07008e-06 -7.62114e-06)
(2.26138e-06 1.86233e-06 -7.76093e-06)
(4.56888e-09 2.15369e-07 -9.32607e-06)
(-3.08059e-07 -2.16555e-07 -5.98104e-06)
(-2.28019e-06 1.88342e-06 -7.52635e-06)
(2.25487e-06 2.11936e-06 -7.86011e-06)
(1.84829e-08 2.01071e-07 -9.30776e-06)
(-4.95216e-07 -4.85855e-07 -6.12498e-06)
(-2.17658e-06 1.57039e-06 -7.46429e-06)
(1.60952e-06 2.14811e-06 -8.37885e-06)
(-1.37566e-06 -7.65761e-07 -1.1618e-05)
(1.19154e-06 1.23329e-06 -9.23312e-06)
(9.08642e-07 -1.07132e-06 -9.03094e-06)
(2.58064e-06 1.14557e-06 -1.14485e-05)
(-1.21353e-06 -4.49364e-06 -1.12252e-05)
(-6.76367e-07 -2.42822e-06 -8.91981e-06)
(3.80088e-07 3.92291e-07 -6.52845e-06)
(1.46903e-06 -1.11121e-06 -9.17829e-06)
(-4.4905e-06 2.14532e-06 -8.11153e-06)
(-2.20677e-07 -1.34821e-07 -7.21011e-06)
(-2.60931e-06 -3.47996e-06 -7.65381e-06)
(2.5121e-06 1.99257e-06 -8.1592e-06)
(2.40938e-06 -3.76663e-08 -6.42912e-06)
(2.21803e-06 -2.35259e-06 -8.46697e-06)
(2.8025e-06 -2.3406e-06 -9.70218e-06)
(1.24822e-06 -3.36388e-06 -6.55874e-06)
(2.04484e-07 1.15429e-06 -7.84323e-06)
(1.02118e-06 -1.76657e-06 -6.35565e-06)
(1.49363e-06 -1.18235e-06 -6.59388e-06)
(2.35642e-06 1.843e-06 -8.44664e-06)
(-8.31163e-07 -3.27312e-06 -7.21293e-06)
(2.07937e-07 -4.80216e-07 -5.4269e-06)
(1.39925e-06 2.08572e-06 -6.63029e-06)
(-9.12792e-07 -2.15539e-06 -5.67651e-06)
(1.34798e-08 -1.62986e-07 -4.21811e-06)
(9.28693e-07 1.66641e-06 -4.9361e-06)
(-6.93968e-07 -1.44681e-06 -4.23668e-06)
(-4.80659e-10 -8.53487e-08 -3.09316e-06)
(6.55329e-07 1.21364e-06 -3.56277e-06)
(-4.77728e-07 -9.88548e-07 -3.02974e-06)
(2.25733e-09 -6.37272e-08 -2.18814e-06)
(4.58075e-07 8.44734e-07 -2.48599e-06)
(-3.21416e-07 -6.70557e-07 -2.08692e-06)
(2.24197e-09 -4.73653e-08 -1.49074e-06)
(3.10677e-07 5.71155e-07 -1.67952e-06)
(-2.14232e-07 -4.45142e-07 -1.39263e-06)
(5.23289e-11 -2.92176e-08 -9.90225e-07)
(2.005e-07 3.79836e-07 -1.10727e-06)
(-1.50771e-07 -2.92411e-07 -9.19863e-07)
(-8.74878e-09 -5.67748e-09 -6.45463e-07)
(1.16557e-07 2.62486e-07 -7.40299e-07)