/*--------------------------------*- C++ -*----------------------------------*\
| =========                 |                                                 |
| \\      /  F ield         | OpenFOAM: The Open Source CFD Toolbox           |
|  \\    /   O peration     | Version:  2306                                  |
|   \\  /    A nd           | Website:  www.openfoam.com                      |
|    \\/     M anipulation  |                                                 |
\*---------------------------------------------------------------------------*/
FoamFile
{
    version     2.0;
    format      ascii;
    arch        "LSB;label=32;scalar=64";
    class       volScalarField;
    location    "2.1";
    object      gradTy;
}
// * * * * * * * * * * * * * * * * * * * * * * * * * * * * * * * * * * * * * //

dimensions      [0 -1 0 1 0 0 0];

internalField   nonuniform List<scalar> 
5322
(
0.0463641
0.00556704
0.00144683
0.000557997
0.00122694
0.00140891
0.00124551
0.000997518
0.000769767
0.000549202
0.000177784
-0.000806235
-0.000812308
-0.000744043
-0.000671592
0.00152681
0.00201344
-2.16213e-05
0.00156797
-0.00227698
0.00252237
-0.0032871
0.00379912
-0.00498104
0.00583336
-0.00720129
0.00830782
-0.0104395
0.0118784
-0.0141047
0.0158966
-0.0186648
0.021276
-0.0208686
0.021408
-0.0121884
0.0245058
0.0298423
0.0150957
0.0169641
0.0220533
0.0185278
0.0198513
0.0206128
0.0196612
0.0202389
0.0199758
0.0213528
0.0206
0.0189737
0.0239556
0.0106825
0.0125363
-0.0386138
-0.00186569
-0.0221698
0.0122315
-0.0288695
-0.00136247
-0.0250824
0.012412
-0.0283684
-0.00121092
-0.0248996
0.0124682
-0.0294288
-0.00166699
-0.0241614
0.0126515
-0.0328476
0.00098126
0.025497
0.0141464
0.0198384
0.0147502
0.018749
0.0155967
0.0186956
0.0159097
0.0223239
0.00164163
0.00872116
0.0127515
0.0202603
-0.00130645
-0.00728754
0.00269283
0.00510714
0.0109542
0.00159367
0.00294556
0.000525242
7.24095e-05
6.92736e-05
0.0248172
-0.0143204
0.000467196
0.0144759
0.000446925
-0.000760304
0.0026447
0.000469767
0.0154804
-0.0241346
0.0216594
0.000515128
-0.000486596
-5.99711e-05
1.43341e-05
4.72354e-05
4.34593e-05
3.30738e-05
2.58787e-05
2.09656e-05
-7.69239e-06
8.39356e-06
0.000567747
-0.000216105
-9.05449e-05
-0.000418238
0.000522296
-0.000261266
-0.000526104
-0.000733225
-0.000822261
-3.18533e-05
0.000613502
-0.000456648
4.45903e-05
0.000502949
-0.000499328
2.16539e-05
0.00052214
-0.000535812
-1.76892e-05
0.000486002
-0.000584844
-4.80125e-05
-0.000148339
0.0008997
0.000736711
-0.000509876
0.000333838
0.000258616
-0.000554913
7.29415e-05
-0.000532245
0.000414977
0.000433694
-0.00048004
-6.6034e-06
-0.000438452
0.000442982
0.000488194
-0.000430979
-9.87954e-07
-0.00040451
0.000523834
-2.46002e-05
-1.35357e-05
0.00171847
-0.00133561
0.0016887
-0.00212221
9.3201e-05
-0.00109283
1.39228e-05
6.51875e-05
-0.000156446
0.000458228
-0.000913961
0.000913146
-0.0016439
5.8509e-06
0.00168407
-0.00190123
0.00197946
-0.00238237
1.25725e-05
0.00235296
-0.00292042
0.00303043
-0.00369021
1.76913e-05
0.00361907
-0.004481
0.00463566
-0.00563811
2.26182e-05
0.00552882
-0.00675286
0.00697962
-0.00837022
3.31197e-05
0.00821296
-0.0098732
0.0102036
-0.0119822
5.21692e-05
0.0117529
-0.0139367
0.0144002
-0.0164536
7.60715e-05
0.0160934
-0.0188737
0.0194756
-0.0213097
0.000107368
0.0207169
-0.0242039
0.0244069
-0.0143618
-9.85028e-05
-0.00157116
0.000776915
-0.00048856
-2.31226e-05
0.000135914
0.000215146
1.62435e-05
0.024846
-0.0143028
7.19337e-05
0.0171785
-0.00262823
-0.00111898
0.00096628
-0.000965731
0.0143878
-0.0244717
0.000152735
0.000108582
0.000305556
0.000165939
6.85565e-05
2.0414e-05
3.00846e-08
-9.76173e-06
-1.43917e-05
1.13659e-05
-7.88796e-06
-0.000453676
-0.000485892
-0.000487036
-0.000453701
0.000109804
0.000146985
8.52195e-05
-0.000594872
0.000285116
-0.000605392
0.000146479
0.000110032
8.62807e-05
-0.000598179
0.000195047
0.000566836
0.000355809
-0.000594901
0.000286027
0.000615643
0.000861837
0.000930487
-0.00166166
-0.0016592
-0.00178188
0.00149007
-0.00214163
0.00241133
-0.0031327
0.00375729
-0.0047166
0.00569753
-0.00700965
0.00831887
-0.0101668
0.0116455
-0.0143229
0.0156161
-0.0193333
0.0198483
-0.00363666
0.0120905
-0.0021656
0.000357593
0.017187
-0.0177931
0.000912332
0.0141567
-0.0135369
0.000645717
0.0107886
-0.00967189
0.000471658
0.00778409
-0.00666005
0.00034168
0.00534623
-0.0044709
0.000234807
0.00351
-0.00296377
0.000148229
0.00221619
-0.00202432
0.000155688
0.00130791
-0.000125704
0.00130773
-0.00202455
0.000155823
0.00149666
-0.00177355
0.000680406
0.00108268
0.000788163
0.000753582
-0.00155969
0.00118518
-0.00192983
0.00212126
-0.00281424
0.00339503
-0.00425155
0.00518654
-0.00635105
0.00757409
-0.00928339
0.0105912
-0.0131119
0.0141495
-0.0171708
0.0174509
-0.00205297
0.00902891
-0.00731838
0.000729049
0.0241189
-0.0250668
0.00118006
0.0204658
-0.018468
0.000759382
0.0153698
-0.0128908
0.000505991
0.0109355
-0.00881951
0.000352834
0.00751123
-0.00590908
0.000237657
0.00499937
-0.00389826
0.000153757
0.00324951
-0.00264636
0.000166206
0.00200774
-0.00198366
0.000673584
0.00151428
0.0013279
-0.000664122
0.00142597
-0.000327527
0.000209425
0.00163366
-0.0014283
0.00151238
-0.00169175
0.002717
-0.00240118
-2.20894e-05
-0.00227639
0.00194804
-0.0017437
4.34475e-05
0.00181923
7.54265e-05
1.50126e-05
-0.000484254
4.52129e-05
-3.82798e-05
2.57189e-05
-1.25213e-05
-5.50882e-06
0.00167689
-0.00167945
0.00192661
-0.00235467
3.45977e-06
0.00295888
-0.00362561
0.00454365
-0.00553568
1.63769e-05
0.00685696
-0.00821364
0.0100435
-0.0117386
3.48826e-05
0.0141935
-0.0160607
0.0191807
-0.0207123
-3.50513e-05
3.70641e-05
5.91629e-05
0.000168642
8.60039e-05
8.75974e-05
0.0143432
-0.0160554
7.3838e-05
0.0190761
-0.0218918
0.0195625
-0.0205178
0.000192794
0.0250434
-0.027109
0.0174146
-0.0131503
-0.0242361
-0.00186203
-1.94613e-05
-0.00870072
-0.00234021
0.000368866
0.0127924
0.0157396
0.00102984
-0.0212299
0.0142598
-2.81941e-05
-0.0130452
0.010414
-0.000174721
-0.00865706
0.00733214
-0.00012213
-0.00570078
0.00493295
-0.000122042
-0.00377973
0.00337018
-0.000110724
-0.00236946
0.00230494
-0.000162594
-0.00148792
0.000382928
0.000625106
-0.000951284
-4.83603e-05
0.00168824
-0.00187673
0.00213043
-0.00256869
0.00321357
-0.00391091
0.00634521
-0.00557068
-2.51174e-05
-0.00521503
0.00454487
-0.00366152
-2.78475e-05
0.00415635
1.76021e-05
-6.59107e-05
-3.74772e-05
-0.000140311
-0.000277338
5.61053e-05
0.000132034
3.39601e-05
9.44471e-05
0.000124266
6.71815e-05
-8.95036e-05
0.00143491
0.000457376
8.61539e-05
0.000358439
3.20982e-06
-0.000117979
-8.10916e-05
9.99041e-05
0.000142149
-0.000137559
-0.0002275
-0.00298286
-0.000127514
0.00351242
-0.00454084
0.0048209
-0.00580179
0.00709696
-0.00831457
0.0136591
-0.0117771
6.88293e-06
-0.0114346
0.0100892
-0.00825299
-1.70487e-05
0.00945482
6.26274e-05
-8.25198e-05
-8.25107e-05
4.52784e-05
-0.000801028
-0.000379742
-0.000268781
-0.000527108
-0.000186357
-0.00013485
0.00236304
-7.70963e-05
-6.73342e-05
0.000257635
-0.000509205
-0.00016152
0.00081452
0.00152652
0.00277058
0.000188495
-2.55082e-05
0.000128834
3.41179e-05
-0.0021305
-7.91381e-05
0.00242672
0.00221403
-0.00295976
0.000148718
-0.00312586
-0.000140471
0.00377668
0.00350987
-0.00446047
0.0002362
-0.00472583
-0.000211955
0.00570885
0.00535758
-0.00664355
0.000344722
-0.0070541
-0.000197627
0.0082949
0.0078293
-0.00965895
0.000478774
-0.0102869
0.000121813
0.0114838
0.0109368
-0.0135857
0.00066068
-0.0145365
0.00132691
0.0149874
0.0145894
-0.0181265
0.000936439
-0.0193549
0.00489418
0.0182056
0.0182035
-0.00272771
0.000369894
-0.00329692
0.0577246
-0.0280616
-0.0289614
0.0430807
0.0113546
0.00407117
-0.0342142
-0.00793377
-0.00480407
0.0149408
-0.0156699
-0.00029874
0.000659472
-0.00283168
-0.0032137
-0.000642381
0.000865281
0.000477779
-0.00018484
-0.000543684
-0.000177175
0.000244075
6.80907e-05
3.5356e-05
1.5425e-05
-3.70425e-06
-1.98131e-05
-7.48598e-05
-3.69494e-05
0.000942089
-0.000942198
9.08054e-06
6.6957e-06
-0.000959048
0.000944727
-2.24401e-06
3.72601e-06
-3.80114e-06
-7.0914e-05
-4.50169e-05
0.00017134
1.25894e-05
0.000196963
-6.92264e-05
-8.53677e-05
-2.12834e-06
0.00032322
-0.000379812
0.000384147
-0.000319085
-0.000324143
-0.000272258
1.23714e-05
0.000381851
0.000338622
-0.00033547
-9.34532e-06
-0.00038201
9.52213e-07
2.07606e-06
1.60086e-05
1.72792e-05
1.21891e-05
-0.000162108
-6.878e-05
-0.000126085
-0.000173568
-0.000185691
-8.32199e-05
-3.31866e-05
0.000904397
-0.00201602
-0.000850912
-0.000166709
0.00795432
-0.00905301
0.01014
-0.0116701
0.0138813
-0.000594298
-0.0129146
-0.00044955
0.0117501
-0.000293901
-0.00112416
0.000186904
0.000132964
0.000256411
0.000299933
-0.000265178
-0.00323702
0.0111237
-0.00530273
-0.0187949
-0.00287467
-0.00344305
-0.0436739
-0.0123416
0.00160182
-0.0183912
0.0133054
0.000661671
0.000602952
0.0160795
0.0134584
0.00173483
-0.00155142
0.017693
0.0159174
0.00184076
-0.00185089
0.0160976
0.0181142
0.00171856
-0.00415261
0.0134222
0.0183599
-0.00654496
0.010541
-0.00915657
0.00979122
-0.0384072
-0.020754
0.00335292
-0.00949756
0.0183361
-0.00115231
-0.0297433
0.0170305
-0.000321934
-0.0201076
-0.0200051
-0.0287511
0.00986569
-0.0150989
-0.0101056
0.0157522
-0.0279754
-0.00410441
0.0178267
-0.0184221
-0.00139304
0.0142429
-0.0123659
-0.000729476
0.010373
-0.00844913
-0.000544677
0.00721995
-0.00573126
-0.000404832
0.00488166
-0.00380464
-0.000249723
0.00324646
-0.00249924
-4.85255e-05
0.00224347
-0.00156931
0.000340581
0.00140835
-0.000692197
0.00132007
0.00151136
-0.00200256
0.00200266
-0.0026731
0.000168643
0.00118134
-0.00156112
0.000672336
0.000749346
0.000794192
0.00108201
0.000928433
0.000679752
0.00133079
0.000809408
-0.000181001
-0.000545101
-0.000755916
-0.000738641
-0.00104256
-0.00156999
-0.00120641
-0.000566286
-0.000310322
0.00528777
-0.00648238
-0.000228791
-0.000172439
-0.000328227
3.18793e-05
-0.00783046
0.00686817
2.63532e-05
0.00563361
-0.00689093
2.75281e-05
0.00838305
-0.0100665
5.67095e-05
0.0120248
-0.0141875
0.000104628
0.0165116
-0.0191446
0.000140991
0.021226
0.000165824
0.000373961
1.54687e-05
-2.37842e-05
-7.36473e-05
1.20285e-05
3.08886e-05
2.40096e-05
1.46199e-05
6.92054e-06
2.58922e-06
1.44983e-06
8.54921e-06
2.55796e-05
-0.000918309
1.58281e-05
5.00128e-05
-5.41422e-06
-9.66156e-06
-1.5197e-05
-2.20113e-05
-3.6392e-05
-6.98362e-05
-0.000135664
-0.000182295
0.000749363
-0.000221447
-0.000581387
-0.00079264
0.015432
-0.0165152
0.0195416
2.12123e-05
-0.00273015
0.00227599
0.0070897
2.70238e-05
-0.00636904
0.00596318
0.0060866
8.25977e-06
-0.00678458
0.00633629
0.00547035
-8.04045e-06
-0.00855868
0.0081194
0.00765917
-0.000165331
0.0106707
-0.0112251
0.0109474
-0.0117574
-0.00109969
-0.00593272
0.0084265
-0.000749266
-0.00811169
-0.000189348
-5.85016e-05
0.0280941
-9.03024e-05
-0.0282727
0.0177029
-0.000632317
-0.0183119
0.0183573
-0.000408152
-0.0192375
0.0284668
-0.000276786
-0.0284833
0.0251005
-0.0250129
0.0248471
-0.025464
0.000112858
-0.0281744
0.0278591
-3.12911e-05
-0.0183543
-0.000702145
0.0185068
-0.0157966
9.69551e-05
0.0280682
0.0101569
0.0273491
0.0101392
-0.0119677
0.0175166
0.00225238
-0.0129365
0.0128454
0.000870801
-0.0102328
0.00932255
0.000589041
-0.00746311
0.00669754
0.000418854
-0.00523044
0.00455377
0.000305921
-0.00354979
0.00306882
0.000151494
-0.00237647
0.00192022
-5.236e-05
-0.00169646
0.00102053
-0.000595256
-0.0016387
-0.000461522
-0.00143709
0.000949797
8.96723e-05
4.78827e-05
0.000587178
0.000151288
-0.000907254
-0.000738787
-0.000194666
-0.000574931
-0.000362256
-0.000279005
-0.00063752
-0.000306118
-0.000326295
-0.000632781
-0.00092967
-0.000985306
-0.000676165
0.00176845
0.000122125
-0.00119639
-0.00015281
0.00190042
0.00223749
6.73195e-05
-0.00202318
-0.000147793
0.00271819
0.00397855
-2.74581e-06
-0.00504004
0.000100807
0.00599094
-4.60687e-05
-0.00757416
0.000157895
0.00884111
-7.27728e-05
-0.0110234
0.000149585
0.0125998
-9.79597e-05
-0.0154533
0.000205711
0.0172454
-0.000181291
-0.020883
5.28953e-05
0.0223951
-0.000494781
-0.0272241
-0.000738585
0.000569337
-0.0165068
0.0269286
0.000155091
0.0153454
0.000359869
-0.0129912
0.0213203
-4.18814e-05
0.0114454
0.000306966
-0.00972976
0.0159503
-3.545e-05
0.00831809
0.000242924
-0.00694277
0.011435
-1.96745e-05
0.00581289
0.000200727
-0.00479321
0.00788532
-1.21723e-05
0.00393668
0.000139661
-0.00319873
0.00526785
-6.72256e-06
0.00258229
9.54684e-05
-0.00213283
0.00346622
-1.32638e-05
0.00171358
5.75655e-05
-0.00151569
0.00230394
-7.1585e-05
0.00143774
-0.000205651
0.000330696
-0.00151616
-0.0013189
0.000686208
-0.00142213
-0.0003496
-0.000160888
-0.00277792
-0.00153131
-0.00134314
-0.000900916
-0.000678278
0.00158295
0.00182751
0.000155007
-0.00113346
-0.000164772
0.00270585
5.99806e-05
-0.00327413
0.00010423
-0.000235189
-0.000114496
-3.06572e-05
-0.00156688
-1.15345e-05
0.000600295
-7.72368e-05
-0.000105557
-0.000158406
0.000599529
-0.00019386
8.0855e-05
7.08482e-05
2.34155e-06
5.55082e-06
5.0295e-06
5.26604e-06
4.38586e-06
5.41395e-06
-7.48382e-06
-2.15814e-06
0.00296074
-0.0034266
1.8922e-05
-5.35312e-06
-2.39758e-05
2.17261e-06
-0.00196881
1.22376e-06
0.00237427
-0.00299601
4.6574e-06
0.0036793
-0.00457914
1.2282e-05
9.94314e-06
-2.52121e-07
1.10734e-05
1.24029e-05
3.66377e-05
4.97011e-05
3.1987e-05
1.8706e-05
1.0301e-05
8.09358e-06
1.78253e-05
1.35112e-05
4.8543e-07
0.0023413
-0.00286537
0.00258883
-0.00320247
0.00394907
-0.00484798
7.32014e-05
-0.00186724
8.1421e-05
0.00174677
8.5915e-05
-0.00131371
4.84462e-05
0.00101573
-7.55952e-05
-2.64575e-05
0.00036098
-2.48107e-05
-0.000610653
0.00398279
7.53771e-05
-0.00311733
-0.000222733
0.00386531
0.00506504
0.000231644
-0.00488449
-0.000310341
0.00598234
0.00724225
0.000368977
-0.00718121
-0.000425031
0.00844074
0.0103313
0.000500739
-0.0102148
-0.000562411
0.0112922
-0.013884
-0.000707908
0.0139969
-0.0183509
-7.9024e-05
-0.000630308
-0.000128484
-2.61257e-05
2.33474e-05
3.13343e-05
2.75538e-05
2.40961e-05
2.14585e-05
-8.22497e-06
8.67862e-06
0.000455071
0.00048395
0.000488961
-0.000127818
0.00061273
-1.40294e-05
-1.77261e-05
0.000630836
-0.000110695
0.000599075
-0.00018874
2.45315e-05
-4.92372e-05
5.03244e-05
-1.24056e-05
1.95183e-05
-4.53881e-06
-0.00188924
7.48007e-05
4.96425e-05
1.60126e-05
2.99536e-06
9.04188e-07
-0.000335693
0.000335987
1.24885e-05
-0.000277287
0.000444278
-0.00010377
3.197e-05
5.93489e-05
1.21687e-05
-6.1338e-05
0.000612118
-0.00185826
0.000122053
-0.00125797
-0.000164011
0.00184827
0.00228583
4.18383e-05
-0.00205544
-0.00013959
0.00328187
0.000118987
-0.00319903
-0.000219617
0.00409429
0.0049568
0.000233948
-0.00494131
-0.000319073
0.00596235
-0.00724755
-0.000432997
0.00841925
0.000348392
0.000274921
0.000201101
0.000132973
6.97952e-05
3.25927e-05
-1.38985e-05
2.8237e-06
1.65552e-05
4.68796e-06
-8.34593e-06
-4.22258e-05
-2.85658e-05
-1.07663e-05
-1.21387e-05
-6.25588e-05
-5.26586e-05
-0.000125826
-0.000120082
-0.000180577
-0.000206179
-0.00102511
-0.00150482
-0.00241211
-0.0026107
-0.00471532
-0.00403934
-0.00232512
-0.0086911
-0.0261473
0.00165611
-0.0415673
-0.0309706
-0.0233415
-0.0155766
-0.0137504
0.00521566
-0.0121647
-0.000745853
0.00307544
0.000316017
-0.000204299
0.0148703
-0.0173019
0.0198952
0.000180807
-0.00244929
0.0037268
0.00823303
0.000301804
-0.00573216
0.00770699
0.00769531
0.000317069
-0.00612867
0.00794244
0.00722844
0.000233267
-0.00820894
0.00903858
-0.000411579
0.000332742
0.000654664
0.00395802
-0.0167908
-0.0241797
0.00098182
0.0204988
0.000453923
0.000194653
0.0129739
0.000144184
-0.0212402
0.0244384
1.05309e-05
-0.026264
0.0155008
-0.0157706
0.0138038
-0.00245666
-0.0172905
0.000592405
-0.0207667
0.028441
-0.0249004
0.0231675
-4.92637e-05
-0.023203
3.55277e-05
0.0229842
-6.91625e-05
-0.0230877
1.36394e-05
0.023191
-8.13432e-05
-0.0232782
0.0253366
-0.0290431
0.00198132
-0.0224818
0.0309885
0.00160845
0.000898285
-0.00982589
0.0104921
-0.0108594
3.25601e-05
-0.00814478
0.00749504
0.000536084
-0.00931375
0.00672589
-0.00787959
0.000633423
0.0152296
-0.0085092
0.00506494
0.00109519
-0.00952227
0.00752263
-0.000163872
-0.000144067
-7.6966e-06
0.000251377
0.000126635
4.59383e-05
9.46537e-06
-4.51981e-06
-1.11985e-05
-1.46094e-05
1.11788e-05
-7.18245e-06
0.000275945
0.000322847
9.07185e-07
-7.38264e-05
-4.56269e-05
0.00057098
0.000195438
-0.000509109
0.000258279
0.00033361
-0.000538291
1.09624e-05
-0.000587909
-4.72821e-05
-0.00015073
-0.000493166
0.000739671
0.000910174
4.66664e-05
0.000172065
-4.12774e-05
2.39765e-05
0.000418046
-0.000449613
-4.48951e-06
-0.000483049
0.000484061
0.000451832
-0.000415427
-1.34633e-06
-0.000540882
1.48808e-07
0.000541632
6.25073e-07
1.76291e-06
-1.39901e-05
1.49264e-05
3.66544e-05
0.000148424
0.00276826
0.00152472
0.000799491
-0.000183146
-0.000544979
-0.000774059
-0.00105837
-0.0015256
-0.00238117
-0.00405759
-0.00415049
-0.00797484
-0.00870816
-0.0186536
-0.0305642
-0.0276059
-0.027757
0.011553
-0.0165774
-0.00802249
-0.00867175
-0.0253926
-0.0311778
-0.0280936
-0.0281075
-0.0280417
-0.0279373
-0.031903
0.0117071
-0.00178329
-0.00687694
0.0351807
-0.0100049
-0.0231675
-0.0216527
-0.0062573
-0.00763991
-0.0174447
-0.0180757
-0.00265474
-0.00465011
0.000208572
0.000769641
0.000748868
0.000577482
0.000411211
0.000315707
0.000176784
0.000170352
2.94559e-05
0.000112281
-0.000338867
-0.000578435
-0.000819712
-0.00115649
-0.00173788
-0.00299981
0.000656603
0.000458774
0.00037201
0.000587609
0.000583408
0.000460974
0.000454995
0.00030878
0.000389279
0.000236364
0.00211488
0.0032265
-0.00391668
0.00496303
-0.00590466
0.000238395
0.00337893
-0.00282432
0.000155891
-8.76121e-06
-6.38809e-05
-5.71481e-05
-0.00193625
1.54481e-05
-0.000601899
0.000358032
-0.000147421
-2.85038e-05
-4.23892e-05
7.21027e-05
-0.000556314
0.000432318
-2.7213e-06
-1.04676e-06
-1.02497e-06
7.11309e-07
0.000276109
-8.92292e-06
1.90952e-06
1.71745e-06
1.25328e-06
-0.000171089
1.5345e-06
7.14046e-05
4.44755e-05
5.8778e-05
-4.57339e-05
4.07791e-05
-3.29816e-07
4.62549e-06
-0.000170665
0.000556693
0.000539824
-0.000330568
-6.98496e-05
-0.000261749
0.000512735
4.64398e-05
1.44365e-05
2.03984e-06
8.62324e-07
-1.09714e-05
-8.87929e-06
-8.1897e-06
-3.656e-05
-3.18822e-05
-6.52317e-05
2.79895e-05
-0.000121602
-0.000117033
-0.000173215
-0.000198312
-0.00425798
0.00515312
0.00746445
-0.00876848
0.0108664
-0.0126941
0.000481819
0.00750705
-0.00633781
0.000345326
1.84318e-05
-8.29556e-05
7.77269e-05
-8.43016e-05
0.000159922
-0.000196995
-0.000214603
-0.00020098
-0.000211465
-0.000112568
5.06415e-05
0.000232709
0.000296029
0.000132894
0.00383435
0.000130065
0.000141096
6.56547e-05
2.80026e-05
7.50068e-06
-6.71994e-06
-1.38935e-06
-2.60354e-06
-1.01276e-05
1.71389e-05
5.69312e-06
-1.67287e-06
4.0111e-05
1.76127e-05
1.78037e-05
9.90298e-06
3.56218e-07
1.62416e-05
1.45781e-05
4.09304e-06
8.17146e-06
1.44667e-05
2.39311e-05
1.57088e-05
8.00129e-05
3.86227e-05
6.00157e-05
0.000162344
7.50054e-05
0.000156387
0.000330854
0.000259741
0.000874082
-0.00242415
-0.00292374
-0.000489411
0.000379272
0.000522357
0.000316865
-0.00704884
-0.00015877
-8.79174e-05
-0.000101017
-0.000730235
-0.000251392
0.016214
-0.000222874
-0.020188
-0.000157729
-0.000870392
-0.0187708
-0.000860957
-0.00105834
-0.0124663
-0.00625932
-0.0102778
-0.0247196
0.00256495
0.0062028
0.00038158
-0.000338093
-0.000290724
-0.000528045
9.50172e-05
-0.0145411
0.0193271
0.000124635
-0.00432476
0.00196972
0.00656724
4.60475e-05
-0.0082181
0.00524266
0.00529759
-1.44472e-05
-0.00847418
0.00559588
0.00469941
-6.77827e-05
-0.0077983
0.00188639
-0.0114792
0.00556367
0.00862269
-0.0107744
0.00317634
0.00135399
-0.000640239
-0.000109378
-1.77991e-05
3.17643e-05
3.57436e-05
2.90675e-05
2.40124e-05
1.86647e-05
8.92831e-06
1.75684e-05
7.1938e-05
0.0035568
-0.00438851
8.44474e-05
0.00540701
-0.00660839
0.00592765
-0.00718908
0.00863948
-0.0103262
0.000120132
-0.00417039
0.000135704
0.00399513
9.12594e-05
-0.0028038
0.000113148
0.00271036
1.89797e-05
9.33275e-05
0.000884498
-7.45198e-05
-0.00131657
0.00884645
0.00025969
-0.00685296
-0.000424796
0.00813743
0.0105497
0.000505322
-0.0100461
-0.000555787
0.0137724
0.000792249
-0.0137718
-0.000777389
0.0139811
0.0177987
0.000778073
-0.0219185
-0.000305566
-0.0182282
-0.0216746
0.000911857
0.0172921
0.0143609
-0.0179048
-0.000241957
-0.000631137
0.000551256
0.000455229
0.000377142
0.000289724
0.000205455
0.000129066
5.77838e-05
9.58658e-05
2.31383e-05
-3.45718e-07
3.20184e-05
-3.16189e-07
0.00801461
-0.009658
0.000163887
0.0114653
-0.0136488
0.0121941
-0.0142676
0.0167214
-0.0184983
-0.000539849
-0.00797993
-5.0271e-06
0.00808082
5.98845e-05
-0.00606178
0.00011944
0.00571065
-1.06057e-05
0.000246036
0.00207379
2.36954e-05
-0.00229882
0.0172835
0.000448714
-0.0127026
-0.000773395
0.0146618
0.0176957
0.000771253
-0.0225327
-0.000207501
-0.0160891
-0.0288988
0.000202516
0.0218791
-0.00178786
0.00953241
-0.000192101
0.0065094
0.00538836
0.00277024
0.00175793
0.0121227
-0.00729012
-0.00040453
0.00117687
0.000652282
0.000476814
0.000374916
0.000280847
0.000190367
9.60446e-05
5.99906e-05
0.00110963
-0.000766566
-0.00124931
-0.000295139
0.000240197
-0.000664243
0.00213274
-0.000904221
-0.0010861
-0.00107221
-0.00065028
0.00160365
0.00179306
0.000119211
-0.00127381
-0.000155735
0.00221897
4.87109e-05
-0.00201774
-0.000140024
0.00274883
0.00329801
0.000129842
-0.00323257
-0.000225572
0.0040643
-0.000377407
-0.000293318
-0.00396027
-0.000162582
-0.00254053
0.000577089
0.000581248
0.000181095
-0.00085298
-0.00140612
-0.000927112
-0.000697196
-0.00149883
-0.000476427
-0.00025451
0.000144346
3.14436e-05
0.00271623
2.91035e-05
-0.00202173
-0.00014578
0.00259574
0.00336896
0.000114127
-0.00321141
-0.000217169
0.00493151
0.000236861
-0.00489311
-0.000314692
0.00598894
0.00728841
0.000351019
-0.00876958
-0.000586101
-0.000435194
-0.00600157
0.000964885
0.000970097
0.000774457
-0.000183549
-0.00249467
-4.95508e-05
-0.0014206
0.00018788
-0.000391711
-0.000498409
9.70805e-05
0.000552386
-0.000276689
-0.00306251
0.000375253
4.50205e-05
0.000584335
-5.47791e-05
0.00599545
0.000164419
-0.00470343
-0.000316934
0.00568847
0.00744854
0.000359124
-0.00714711
-0.000416733
0.0102389
0.000533368
-0.0101287
-0.000569269
0.0112853
0.0139846
0.000726113
-0.016725
0.000410637
-7.09328e-05
-2.5655e-05
2.239e-05
1.83141e-05
1.20399e-05
7.16335e-06
3.9226e-06
-3.26632e-06
-1.84499e-06
1.58128e-05
3.71475e-06
-2.59014e-06
5.62759e-06
1.96579e-05
4.62366e-05
7.37767e-05
3.69937e-05
1.35723e-05
3.92941e-06
4.38357e-06
-2.06195e-06
1.47929e-06
0.00299345
2.7949e-06
-0.00298377
0.00367756
5.01575e-06
-0.0045676
0.00458302
-0.00366378
0.00371261
7.20655e-06
-0.00462938
0.00456642
-0.00367735
0.00298564
-3.74227e-06
-0.00303501
0.00239895
-0.0023829
0.00239066
-0.00239292
8.73248e-06
-0.0029782
0.00304577
9.46561e-06
-0.00370283
2.14602e-06
-0.00455615
0.00464817
1.11498e-05
-0.00565673
-1.07839e-06
-0.00684448
0.00696762
-0.00685634
0.00687959
8.19162e-06
0.00561007
-0.00558845
5.37715e-06
0.00567179
1.66548e-05
-0.0069396
0.00685979
-0.00559162
-2.7818e-05
-0.00523614
0.0032082
1.29513e-05
0.00417684
-2.73507e-05
-0.00344846
0.00213729
1.61227e-05
0.0027389
-0.00241367
0.00196675
-8.34019e-06
-0.00199793
4.86709e-08
0.0019552
1.63622e-06
-0.00195002
6.46021e-06
0.00200249
1.10782e-05
-0.00196178
0.00242248
-0.00273823
2.63084e-05
2.97997e-05
2.11023e-05
7.56977e-05
4.75544e-05
-0.000951333
0.000984878
-0.000969468
0.000970499
2.74549e-07
-2.14169e-06
-2.20593e-06
-0.000984264
0.000952362
-4.7063e-05
-2.67588e-05
0.000491034
-0.000550679
1.5777e-06
-3.85623e-06
0.00170323
-0.00172351
0.00172696
-0.00170049
0.00176349
-0.00183419
-4.12454e-05
-1.09938e-05
-0.000489927
2.74313e-05
0.000550893
-2.30562e-05
1.68336e-05
1.44616e-05
3.45678e-06
6.13869e-06
9.80156e-06
1.26301e-05
1.23189e-05
-0.00827836
9.64812e-06
-0.00995436
0.00998531
-0.0100672
0.00997702
2.63091e-05
0.00840903
-0.00827405
-2.53869e-05
-0.00783895
0.00479804
2.49644e-05
0.0063573
-0.00392309
-0.000130239
-0.00300324
0.00352324
-0.000272498
-0.00450685
0.00523787
-0.000339994
-0.00652092
0.00763019
-0.000328536
-0.00907163
0.0107915
-0.000424717
-0.0124575
-0.00114157
-0.000365124
-0.000596805
-0.000197187
-0.000420506
-0.000179062
-0.0003293
-0.000148355
-0.000246621
-9.57542e-05
-0.000164998
0.00236186
-0.00257809
-9.00574e-05
-0.00191513
0.00167879
4.79903e-05
-8.44895e-07
-0.000163744
-3.40974e-05
-0.0010203
-5.56372e-05
0.00151987
7.22903e-05
-0.00229735
-2.08955e-05
-2.3964e-05
0.000125296
6.43192e-05
-8.9421e-05
-0.000949198
0.00143689
0.000463961
0.00163239
0.000587349
0.000334175
6.037e-05
0.000205139
-0.00143882
0.00183564
-0.00175973
4.21827e-05
5.20773e-06
-8.09154e-05
-1.9732e-05
-3.64178e-06
9.54553e-05
0.000102741
0.000136057
0.000189839
4.84448e-05
-0.0113778
0.00697262
-0.00581874
0.00943077
2.24621e-05
7.29594e-06
-5.65628e-06
3.56726e-06
1.45536e-05
2.84429e-05
4.24568e-05
5.39702e-05
-1.15606e-05
-0.0117902
3.42706e-05
-0.0140296
0.0139577
-0.0159003
0.00975692
9.08232e-05
0.0135176
-0.00835768
-0.000153008
-0.000156338
0.000740152
0.0005804
0.000606346
0.000836563
0.0104244
0.0152374
-0.0178949
0.00181312
0.000145848
-3.28556e-05
0.000481994
-0.00012713
-2.63694e-06
-0.00919715
0.000172469
0.000876583
-0.0128667
0.000677854
0.00010434
4.95601e-05
0.000104232
0.000216636
0.000316095
0.000151713
6.14133e-05
3.06502e-05
2.58943e-05
2.40634e-05
3.41888e-05
4.56805e-05
3.03875e-05
2.48401e-05
3.00724e-05
2.08319e-05
1.75736e-05
-9.77546e-07
1.28601e-05
1.3161e-05
0.00011416
3.55127e-05
2.56474e-05
1.75471e-05
1.72507e-05
1.11421e-05
7.15054e-06
1.69529e-05
2.16965e-05
1.22632e-05
-9.13647e-05
2.39772e-05
3.5449e-05
2.69006e-05
4.52225e-05
7.02343e-05
7.60936e-05
0.000129309
6.59807e-05
0.000124893
6.23424e-05
0.0157311
-0.0185784
0.000262435
0.020399
0.000383896
7.62652e-05
0.000216089
0.00128963
-0.00386426
0.0126043
-0.0104637
0.0220596
0.00319553
0.0137271
-0.0118506
0.0101463
-0.0100135
0.00707343
0.00802587
-0.010872
0.00245954
-0.0117073
0.00747349
0.0077307
0.0145946
-0.000761152
-0.000289205
-0.00183136
-0.000125211
-0.00746995
-0.000148866
-3.39191e-05
3.7947e-05
5.29967e-05
9.04232e-05
5.03817e-05
4.1496e-05
4.93629e-05
4.0747e-05
-2.87242e-06
4.12993e-05
2.36053e-06
0.000280629
0.00019354
0.000139676
-0.0107324
0.0126279
0.000360384
-0.00956986
-0.00056581
0.0112452
0.0141995
0.00071348
-0.0135866
-0.000750267
-0.0165911
0.000458565
0.00038188
-1.98659e-05
1.29725e-05
-1.48633e-06
0.000233271
4.38034e-05
2.30428e-05
3.06186e-05
2.42168e-05
-8.08974e-06
0.000209721
0.000133357
6.32314e-05
-0.00245412
-0.000158175
0.00275074
-3.01044e-05
0.00191666
-0.00145889
-0.00134142
0.00163404
-0.00100275
-0.000923505
-0.000841285
0.000186196
-0.000290959
-0.000326167
-0.00398463
0.000796551
-0.000334646
-0.000896208
0.000554384
0.00105397
-0.000451655
-0.00731475
0.000748463
0.00013687
0.00131518
-6.71441e-05
-0.00184284
-0.000568595
0.00105004
0.00171899
0.00136337
-0.000481644
-0.00609761
-0.000434912
-0.00592948
0.00120226
-0.000649295
-0.00894649
-0.000586183
0.00846726
0.00138817
-0.000854529
-0.0126222
-0.000502184
-0.0152631
0.00195282
0.000758826
0.00404327
0.000296646
-0.0211738
0.000757596
0.00208646
0.00240771
0.00359759
0.0131679
0.0309287
0.0162221
0.0238939
-0.00203599
-0.00117419
-0.0171687
0.00127514
0.000679788
0.0024613
0.0159751
0.023204
-0.00197843
-0.00108629
-0.000773926
0.0114245
-0.0122367
0.001295
0.00117798
0.00100054
0.000205153
0.00185196
0.0146976
0.0234016
-0.00204058
-0.00109844
-0.000778589
-0.0123365
-0.000950887
-0.000725663
-0.000549788
0.000780158
0.000562623
0.000325945
3.40056e-05
0.000238329
0.00100497
0.00119821
0.00125114
-0.0012076
-0.00154466
0.00177035
0.0134069
0.0261685
-0.00456975
0.00520448
0.00230449
0.00206036
0.000272017
-0.000146872
-7.38213e-05
-3.7099e-05
-2.00834e-05
-1.16554e-05
-4.6343e-06
7.9407e-06
2.20669e-06
8.94822e-07
-1.70844e-06
8.96863e-06
5.12208e-06
5.50414e-06
-3.15459e-06
-6.87919e-05
-0.000126295
-9.35238e-05
1.53831e-05
3.64914e-05
-0.0041797
0.00369362
1.3839e-05
1.25795e-05
1.40323e-05
1.65237e-05
9.43844e-06
1.64247e-05
4.13429e-05
-1.28052e-05
0.000489958
-0.00202747
0.000142115
7.44746e-05
8.95991e-06
1.32488e-05
1.5805e-05
-1.41999e-06
-1.01019e-05
2.01431e-05
1.52273e-05
1.29091e-05
1.04893e-05
1.39764e-05
1.56962e-05
4.73202e-05
4.49015e-05
0.0139147
3.05212e-06
-0.0138846
0.01617
-2.2616e-05
-0.0185003
0.0184962
-0.0161434
0.01642
2.32065e-05
-0.0186652
0.0186582
-0.0161
3.21262e-05
0.0186551
-0.011665
-5.57898e-05
-9.52439e-05
0.000126175
0.000263594
0.000282206
-0.000273189
-0.00144159
-0.00292844
-0.00572359
7.3564e-05
-0.00222827
-0.000873482
-0.000265052
0.000282328
0.000259761
4.21698e-05
5.27725e-05
5.65374e-05
3.13279e-05
0.0120016
-0.0118044
0.0118402
-0.0119722
-1.79766e-05
-0.0138949
0.0140654
5.44927e-07
-0.0164066
-4.82897e-05
-0.0185689
0.0186847
-1.73647e-05
-0.021395
0.0210702
-0.0242169
-1.79e-05
-0.0001573
-5.65938e-05
1.93155e-05
3.50945e-05
0.000124469
0.00029527
0.000785338
0.00426249
-0.00231157
0.0582255
-0.00153568
-0.000270068
-0.00109849
-0.0113394
0.00250761
0.00657764
0.000518503
-0.000117599
-0.00589277
-0.000142053
0.000143971
0.000315683
2.66102e-05
3.39922e-05
0.000552946
0.000319211
-0.0187553
0.0163779
-0.000764525
-0.000471522
-0.000132836
0.00328061
-0.000856112
0.00269453
0.00439288
0.00773996
0.0149545
0.00333787
-0.00852631
0.00344007
-0.0116766
0.00273415
0.00129552
-0.0081533
0.000563836
-0.00014045
1.36114e-05
-2.8228e-05
1.21292e-05
0.000127001
-8.1715e-05
-0.000195807
-5.90215e-05
-0.000216833
-5.09221e-05
8.45359e-06
-2.24368e-06
1.38919e-05
-9.58604e-06
-2.27029e-06
-4.36766e-05
5.78397e-06
6.96278e-05
0.000148651
0.00037933
0.00604967
0.0258628
0.00138043
-0.00359011
0.0165505
0.000636319
-0.0026127
-0.00152643
-0.00249814
0.0578492
-0.00125763
-0.000289469
0.000482773
0.000117539
0.000273546
-0.00536725
-0.000159639
-0.000155472
-0.00115906
-0.0114389
-0.0104507
-0.00668079
-0.0239534
0.00254642
0.00585053
0.000264385
-0.000333924
-0.000355108
-0.00020925
-0.00652379
-0.000344523
0.00318076
-0.00207026
0.00341193
-0.00022678
-0.0059871
-0.000370049
-0.000167523
-4.25537e-06
0.00046235
0.00207805
0.000502125
0.000557331
0.00199373
0.00193079
0.000237085
-0.000107201
-2.80051e-05