/*--------------------------------*- C++ -*----------------------------------*\
| =========                 |                                                 |
| \\      /  F ield         | OpenFOAM: The Open Source CFD Toolbox           |
|  \\    /   O peration     | Version:  2306                                  |
|   \\  /    A nd           | Website:  www.openfoam.com                      |
|    \\/     M anipulation  |                                                 |
\*---------------------------------------------------------------------------*/
FoamFile
{
    version     2.0;
    format      ascii;
    arch        "LSB;label=32;scalar=64";
    class       volScalarField;
    location    "2.1";
    object      gradTx;
}
// * * * * * * * * * * * * * * * * * * * * * * * * * * * * * * * * * * * * * //

dimensions      [0 -1 0 1 0 0 0];

internalField   nonuniform List<scalar> 
5322
(
-0.0181921
0.00101779
0.00108126
-8.41387e-06
-7.47962e-05
-6.48433e-05
-4.56601e-05
-3.19844e-05
-2.35993e-05
-1.50661e-05
-7.90047e-06
4.71994e-05
6.71247e-05
-0.000913891
-1.27359e-05
0.00171664
-0.00133774
1.48316e-05
-0.00110251
0.00100333
-0.00133981
0.00173524
-0.0018336
0.00274174
-0.00284702
0.00394502
-0.00397737
0.00575333
-0.0057835
0.00775685
-0.00737217
0.0108717
-0.00803186
0.0155156
0.00134075
0.0229306
0.0162623
-0.00644421
0.0178473
-0.00106256
-0.0169406
0.0169839
-0.00102838
-0.0180577
0.0179678
-0.000613497
-0.0191895
0.0169069
-0.000397194
-0.0201468
-0.0200095
-0.0287276
-0.00952583
0.0181478
-0.00119792
-0.0296338
-0.000912724
0.0281602
-0.000340053
-0.0281544
-0.000121908
0.0274269
-0.000143206
-0.0276514
2.91621e-05
0.0270636
0.000404533
-0.0273864
0.00144742
0.0225954
0.00131825
-0.0215579
0.0244855
-0.0252317
0.0242794
-0.0247361
0.0247563
-0.0247715
0.0282206
-0.0206939
0.00972989
-0.0150627
-0.0101745
0.015854
0.00131488
-0.00698421
0.0115526
-0.0319412
-0.0100759
0.0350747
-0.00159314
0.000345172
0.000600515
0.00391275
0.0206375
-0.00409583
0.000295578
-0.00147365
0.0118873
-0.028208
-0.028147
0.0577708
-0.00148909
0.0159688
0.0260731
0.000581302
0.000283138
0.000215344
0.000104884
3.39811e-05
3.26355e-06
-7.82415e-06
-1.27972e-05
-1.55889e-05
1.13709e-05
-8.09942e-06
-0.000553515
-0.000533521
6.98295e-05
0.000331115
1.24947e-05
0.000486963
-0.000584913
-4.56784e-05
-0.000148432
0.000910368
0.000740038
0.000195147
0.000582144
0.000365997
0.000274128
0.000625642
0.000303805
0.000327106
0.000636401
0.000263165
0.000523972
0.00072413
0.000815175
3.40912e-05
-0.000607295
2.67895e-05
0.000418265
-0.000516569
-0.000565309
9.30102e-05
0.000218164
0.000112986
-0.000441596
-0.000487177
0.000106004
0.000129027
0.000160364
-0.000481924
-0.000452591
0.000107208
7.84702e-05
0.000263444
-0.000509938
0.000671866
-0.00152045
-0.00200962
0.00202681
-0.00269713
-0.0001374
-0.001575
3.11661e-05
0.00141964
-0.000329045
0.00151643
0.000746782
0.00112025
-0.00182578
0.000679989
-0.00157651
0.00120758
0.00156941
-0.0022291
0.000156393
-0.00189468
0.00204408
0.00254185
-0.00328364
0.00014762
-0.00275312
0.00324079
0.00396159
-0.00495661
0.000232818
-0.00413977
0.00493854
0.0060047
-0.00737428
0.000336356
-0.00616267
0.00718278
0.00876388
-0.0106971
0.000459754
-0.00895882
0.00994349
0.0122578
-0.0150458
0.000620732
-0.0125819
0.0130619
0.0163816
-0.020208
0.000859768
-0.0166774
0.0159453
0.0198636
-0.0036266
0.011373
-0.0279311
-0.028486
0.0580338
-0.00246734
-0.00263782
0.000698853
0.00424973
0.0205441
-0.00303957
0.00050421
-0.00361358
0.0109036
-0.0284055
-0.0280126
0.0576809
-0.00193477
0.0159608
0.000271068
0.000453574
0.000256447
0.000137697
5.33566e-05
1.25279e-05
-3.88833e-06
-1.13106e-05
-1.41959e-05
1.12101e-05
-7.77277e-06
0.000433692
-0.000484188
0.00048498
-0.000433134
2.01204e-06
0.000432139
-0.000402768
-3.89203e-07
-0.000484936
8.28199e-07
-0.000429836
9.79181e-07
0.000404304
1.63474e-05
0.00045173
-3.78508e-05
-0.000490921
8.85008e-07
0.000485144
-1.05257e-07
4.55875e-07
0.000889593
-0.00163961
0.0016406
-0.00161764
0.00195321
-0.0023522
0.00299054
-0.00364075
0.00457277
-0.00556123
0.00688422
-0.00825623
0.0100651
-0.0118172
0.0142093
-0.0162256
0.0192366
-0.0210291
0.0245531
-0.0142158
0.000355156
0.0144074
0.000417609
-0.0239084
0.0204964
0.000122154
-0.018649
0.0158971
7.51151e-05
-0.0137724
0.0116015
4.61073e-05
-0.00975748
0.00810443
2.74508e-05
-0.00667387
0.00545516
1.73441e-05
-0.00442894
0.00357132
1.3032e-05
-0.00288735
0.00232061
9.77076e-06
-0.00187688
2.63337e-06
0.00188115
-0.00231454
-7.60373e-06
-0.00194622
0.00161883
-3.44175e-06
-0.000895864
-5.81481e-05
0.000909519
-0.00169853
0.00187517
-0.0023182
0.00284691
-0.00351986
0.00437401
-0.00534445
0.00660694
-0.00791608
0.00969918
-0.0113093
0.0137902
-0.0154501
0.0188482
-0.0197376
0.024159
-0.0140475
-0.00343297
0.00591621
0.000663507
-0.0224937
0.0179579
0.000151972
-0.0170383
0.0143337
-5.65429e-05
-0.0121934
0.0103743
-9.0294e-05
-0.00857146
0.00719439
-7.72721e-05
-0.00586599
0.00484666
-7.06678e-05
-0.00389624
0.00320517
-6.80042e-05
-0.0025409
0.00212286
-7.62638e-05
-0.0016527
0.00132752
1.65775e-05
-0.000449889
0.000751295
0.00124352
-2.76485e-05
0.00013667
-0.000229617
0.000686375
-0.00212273
0.00184621
-0.00270383
-0.00182154
-0.00226796
0.000165398
0.00128017
0.00142525
-0.00178584
0.000653641
-0.00158572
-0.000143184
6.02513e-05
-0.000601842
4.87738e-05
-2.52305e-05
-0.000623173
1.57888e-05
-0.000137248
-0.0016259
-0.00176395
0.00146334
-0.00220327
-6.82868e-05
0.00245937
-0.00325899
0.00389235
-0.00492848
-0.000233326
0.00593772
-0.00734388
0.00867966
-0.0106637
-1.55782e-05
0.0121227
-0.0149418
0.0160964
-0.0197807
0.00409664
0.000689562
0.000177349
0.000218182
-0.000116273
1.41759e-05
0.0125712
-0.0153387
0.000720684
-0.0124433
0.0121306
0.0168021
-0.0198571
0.00111722
-0.0174609
0.0141096
0.0283314
-0.00241801
0.00136344
-0.0306234
-0.0284547
0.0551356
-0.00372903
0.000565393
0.00102159
-0.0133186
0.002629
0.00785349
-0.00816202
0.000540216
0.00622419
-0.00554946
1.97663e-05
0.00426345
-0.00395994
-5.05283e-05
0.00273797
-0.00262921
-9.53413e-05
0.00189545
-0.00168917
-0.000122869
0.0013231
-0.000922108
-0.000132892
0.00114006
0.000400427
0.000283346
-5.28085e-05
-2.62434e-05
0.000581512
-0.000244635
0.003057
-0.0039711
0.00483374
-0.00600881
-0.00388315
-0.00506354
0.000236935
0.00317717
0.00399837
-0.00334477
0.000151488
-0.0025758
-0.000108208
-5.45544e-05
-1.37606e-05
-5.34056e-05
-8.12354e-05
0.000136709
9.35631e-05
2.84909e-05
-0.00048555
-0.000146046
0.000736876
0.00107798
0.000914808
0.00032023
0.00151313
0.000556789
0.000463143
0.00036062
-0.000275591
-0.000737808
-0.00106085
-0.000521759
0.000393689
-0.000516625
6.22598e-05
0.000936817
-0.000837199
0.00736001
-0.00895007
0.0108036
-0.0130824
-0.0085598
-0.0109837
0.000492392
0.00689542
0.00896238
-0.00755585
0.000348198
-0.0058146
-0.00016416
-5.91555e-05
-7.3657e-05
-0.000103097
-0.000255782
-2.49179e-06
-6.4209e-05
-0.000174031
1.63635e-05
-6.94706e-06
0.000707372
3.63604e-05
-8.10668e-05
-1.25249e-05
2.09376e-05
1.02442e-05
-4.27487e-05
9.37506e-05
-0.00107853
-5.01659e-05
-1.89561e-05
-6.20927e-06
-1.43654e-05
0.0023601
1.0136e-05
-0.00298026
0.00289732
-0.00355716
-5.4811e-06
0.00366075
2.03555e-05
-0.00455627
0.00445156
-0.00542701
2.1247e-06
0.00560161
3.31101e-05
-0.0068558
0.0067203
-0.00805189
1.49057e-05
0.00833246
5.28245e-05
-0.0100202
0.00984495
-0.0115092
3.83111e-05
0.0119526
7.36642e-05
-0.0141429
0.0139187
-0.0157479
8.23955e-05
0.016418
4.1699e-05
-0.0191214
0.0188316
-0.0203115
0.000133394
0.0211122
-0.000163366
-0.0243269
0.0239862
-0.0142844
-3.12862e-05
0.0141667
-0.000985991
-0.00231072
-0.00187285
-0.00276394
-0.0281036
0.0059844
0.00406855
-0.00218889
-0.00440697
-0.00151761
-0.0233068
0.00528849
-0.00910528
-0.0125124
-0.00259894
-0.00377787
-0.00486434
-0.00262412
-0.00139612
0.000665679
-0.000792857
-0.00158763
-0.00148545
-0.000990604
-0.000723612
-0.000525995
-0.000150363
0.000874764
0.000935109
0.000935792
0.0010767
0.00141088
0.0013462
0.000994897
0.00100199
0.000679098
-0.000598222
0.000189305
-6.85507e-05
-4.76961e-05
0.000171939
-0.000521269
-1.1082e-06
-4.62296e-07
-1.20055e-06
9.74109e-07
-0.000331988
-0.000381649
-0.000379406
-0.000334896
0.000334356
-0.000275663
1.24064e-05
0.000383454
-0.000322324
-0.000322592
1.25877e-05
0.000381064
8.17342e-07
1.80975e-06
2.00891e-06
1.81439e-06
-1.45093e-05
1.15539e-05
-5.62474e-06
-2.41955e-06
6.65198e-06
2.53274e-05
6.24816e-05
4.92027e-05
-5.18905e-05
-0.000395794
0.000231976
-0.000254083
0.00171622
-0.00240681
0.0154682
-0.0184806
0.0216594
-0.000222135
-0.00618311
-0.00116039
0.0017184
3.7453e-05
0.000463951
0.00076567
-0.00246402
-0.00441728
-0.00852387
-0.0197293
-0.0203032
-0.0465878
-0.0191236
-0.0163427
-0.000306907
-0.0063261
0.00580546
-0.0407308
-0.0248054
-0.0120198
0.0178496
0.00142725
0.000772742
-0.0182867
0.0192611
0.000127426
-0.00238229
-0.0199617
0.019328
3.90503e-05
-0.00263298
-0.0194888
0.0192724
0.000157974
-0.00423261
-0.0186032
0.0137566
-0.0117577
0.0101841
0.00776617
0.0220568
-0.010372
-0.00578092
0.00324861
0.0125558
-0.0383803
-0.00188613
-0.0223018
0.0214709
0.020593
0.0189576
0.023953
0.0106685
0.00174773
0.00872804
0.0127661
0.0201404
-0.00710395
0.00177724
0.0119594
-0.00780164
0.000115212
0.00793755
-0.00593135
-4.1082e-06
0.0056011
-0.00408315
1.92935e-05
0.00391517
-0.00274714
1.91621e-05
0.00265536
-0.00183104
4.47256e-07
0.00171367
-0.00128864
-7.47759e-05
0.000996218
-0.00107845
-0.000372313
5.85862e-05
-0.00124233
-0.00076393
0.000455888
-0.00132575
0.00167847
-0.00210723
7.55175e-05
-0.00187546
0.00169779
-1.22822e-05
-0.000906736
5.90686e-05
0.000897848
-0.000887607
5.31855e-06
7.11203e-06
2.82948e-06
3.41503e-06
7.07039e-06
1.17548e-05
3.48958e-05
5.46937e-05
9.01886e-05
-0.000326373
2.61039e-05
-0.000134676
0.00130603
-0.00133713
9.34153e-05
9.55403e-05
0.000504023
0.00051945
0.00476619
0.00611834
-0.000232084
-0.0041294
0.00494657
0.000338267
-0.00615269
0.00717636
0.000464263
-0.00897774
0.00990955
0.000630054
-0.0127226
0.0129773
0.000862411
-0.0171147
0.00033039
0.000644108
-0.00281455
-0.0028098
-0.00803502
-0.00411958
-0.0023723
-0.00147014
-0.000996354
-0.00073812
-0.000537353
-0.000164394
0.000855437
0.000904105
0.000895994
0.00134718
0.00082064
-0.00016489
-0.000525147
-0.000749419
-0.00103203
-0.001503
-0.0023709
-0.00408042
-0.00773883
-0.0178668
-0.0187235
-0.0322838
-0.0260044
-0.00864799
-0.00861821
0.0162419
0.00173755
-0.00202594
-0.00161778
0.00764251
0.000264176
-0.00620874
-0.00593276
0.00608532
-8.94395e-06
-0.00680992
-0.00650824
0.00536544
3.30291e-06
-0.00845733
-0.00806245
0.00268366
-0.0116428
0.00801036
0.00777739
0.00812399
0.00710892
-0.00996015
0.000765001
0.0035631
-0.0115805
0.00266595
-0.0108285
0.0124566
-0.0272401
-0.0011726
-0.0262231
0.0198586
0.0211688
0.0204475
0.020052
0.020475
0.0199507
-0.0283935
-0.00141795
-0.0256088
0.0164391
0.0176361
0.0165106
0.0174148
-0.00117349
-0.0273212
-0.02714
0.0124907
0.0204964
0.0189023
0.0180008
0.0224623
0.0222687
0.0173501
0.0049958
0.0104224
0.00439136
-0.00242959
0.00407992
0.000901494
-0.00299493
0.00228234
0.000302375
-0.00234988
0.00164715
0.000199191
-0.0017534
0.00114057
0.00012319
-0.00121655
0.000809065
0.000103004
-0.00084482
0.000512056
3.40134e-05
-0.000582792
0.000315578
-3.23306e-05
-0.000485993
0.000113906
-0.000256814
-0.000656291
-0.000299444
-0.000898515
-0.0010861
-0.00108663
-0.00073079
-0.000527161
-0.000819461
-3.33912e-05
0.000609862
-0.000454566
4.58764e-05
0.000502751
-0.000500049
2.15349e-05
0.000523107
-0.000537374
-1.87857e-05
-3.8316e-05
-0.000964047
-3.54372e-06
-0.00167954
2.85188e-06
-0.0019035
1.35192e-05
0.00234877
-0.00238123
-2.30749e-06
-0.00286475
7.44596e-05
0.00355056
-0.00322154
8.24262e-05
0.00396466
7.17346e-05
-0.00487236
0.000116406
0.00594258
8.90274e-05
-0.00720313
0.000157967
0.0086308
6.60849e-05
-0.0102852
0.000198425
0.0120746
6.59593e-05
-0.0141204
0.000258452
0.0162652
-0.000123127
-0.0184261
0.000440563
0.0208511
-0.000199064
-0.000667277
-0.0260416
-0.0188631
0.000775849
0.0213331
-0.000314751
-0.0199654
-0.013861
0.000644598
0.0168102
-0.000192126
-0.0147663
-0.0101585
0.000409498
0.012366
-0.000146411
-0.0105257
-0.00720696
0.000275718
0.00871525
-8.66669e-05
-0.00720152
-0.00493766
0.000177671
0.00590844
-6.15197e-05
-0.00475783
-0.00327039
8.90641e-05
0.00393207
-2.28421e-05
-0.00302257
-0.00211655
4.25511e-05
0.00268397
3.19379e-05
-0.00183594
-0.00130907
0.000131577
0.00211118
0.000237937
-0.000149861
0.000456612
-0.000765234
-0.00124587
6.06177e-05
-0.000377862
5.80733e-05
0.00110108
-8.97248e-05
1.70267e-05
-0.00091503
6.14893e-06
0.00168346
-0.00164214
-5.38547e-06
-0.00188824
7.77367e-05
-0.00213331
4.90708e-05
0.00259613
9.95285e-05
2.47892e-05
1.44771e-05
2.30444e-05
0.00197946
1.87025e-05
-1.37228e-05
-0.000404081
-9.36931e-07
0.000442576
1.29041e-06
1.87834e-06
2.31185e-06
-6.85855e-05
-7.96882e-05
-5.73123e-05
-0.000610002
1.2482e-05
-0.000135425
-6.3772e-05
-6.1214e-05
-6.84636e-05
0.00250129
0.00206554
-6.33675e-05
0.000208382
6.51501e-05
4.4515e-05
0.00128973
0.000159787
-0.00190769
0.00208986
0.000147981
-0.00275181
0.00326505
0.00023273
1.71913e-05
-0.000125302
-0.00014218
-0.000180554
-0.000201783
-0.000241733
-0.000212635
-0.000186217
-0.000128622
-0.000140061
-0.000127314
-6.82696e-05
-7.81642e-05
-0.00187133
0.00204166
0.00326889
-0.0039606
0.00502882
-0.00597751
-0.000107866
-0.00383533
1.42471e-05
0.00327895
-9.70173e-05
-0.0025166
-4.30776e-05
0.00226489
-4.78322e-05
4.20926e-05
-0.00189742
-9.67837e-05
0.00233136
-0.00255064
7.41964e-06
-0.00519795
-2.99857e-05
0.00629864
-0.00554722
1.16143e-05
-0.0068554
1.01898e-05
0.00829217
-0.00818157
3.29474e-06
-0.00977022
8.08691e-06
0.0115943
-0.0119241
-3.18337e-05
-0.0134035
8.10157e-05
0.0155326
-0.0179537
-2.83042e-05
0.0202633
-0.0226051
-0.00027751
-0.000646577
-0.000112163
-2.38812e-05
2.26305e-05
3.02498e-05
2.703e-05
2.35435e-05
2.03216e-05
-8.4715e-06
8.46766e-06
-0.000432255
0.000487884
-0.0004803
-0.000438835
4.24381e-06
4.26846e-06
-1.30418e-05
2.5296e-05
0.000415229
3.16044e-06
-4.60132e-06
-3.77631e-05
4.72506e-05
-4.37497e-05
-0.000595987
1.16555e-05
-0.000162046
0.00114129
0.000168253
-4.31446e-05
-2.93561e-05
1.67326e-05
-2.19741e-06
0.000320758
0.000326299
-9.69251e-06
0.000273534
0.000434282
-7.52229e-06
-9.35127e-06
-9.05068e-06
-3.973e-05
1.30908e-05
-0.000489185
0.00150878
7.06556e-05
-0.00228357
-2.17645e-05
0.00271568
-0.00239507
-6.37041e-06
-0.0029981
3.15811e-06
-0.00362068
4.45162e-07
-0.00447839
1.65665e-05
0.00549747
-0.00563281
-1.01117e-05
-0.00659173
9.55829e-05
0.00796688
-0.00958082
9.78961e-05
0.0113548
-2.64424e-07
1.20829e-05
1.44253e-05
1.45077e-05
1.23652e-05
1.53836e-05
2.36822e-06
5.20918e-07
-1.15635e-05
-1.24922e-05
-2.83636e-05
-4.59702e-05
-1.01407e-05
-1.11404e-05
3.93581e-06
3.93265e-06
5.6294e-06
7.89854e-06
1.02244e-05
1.49242e-05
1.70056e-05
1.85101e-05
2.7801e-05
3.45944e-05
0.000147473
0.000201174
-0.000541429
0.000252834
-0.00089137
0.00384989
-0.0236035
-0.00640497
0.000169124
-0.00216877
0.0110403
-0.0110067
-0.0336256
-0.0129983
-4.19562e-05
0.00330997
0.000253166
-0.0261783
-0.0114615
-0.00772045
0.0154454
0.00171294
-0.00175217
-0.0029501
0.00829106
0.000263653
-0.00579079
-0.00713547
0.00712658
1.17664e-05
-0.00635604
-0.00748607
0.00663504
5.95665e-05
-0.00815839
-0.00849425
0.00162595
-0.0004647
8.06011e-05
8.61229e-05
0.0202543
-0.0183469
0.000280048
0.0166114
-0.00050796
0.000313527
-0.020995
0.000451452
-0.0129859
0.0150234
0.000191923
-0.0163668
-0.0286791
0.0217227
-0.00167983
0.0027761
0.0094342
-0.000159857
0.0222046
0.016273
0.0182735
-0.0220376
0.000736331
-0.0186227
-0.0002085
-0.020602
0.000915534
-0.0197415
-0.000216624
-0.0198467
0.000959271
-0.0211974
0.0169979
0.016657
-0.00111899
-0.0330406
-0.0265433
0.0123291
-0.00873072
0.0120205
0.00690684
0.00814427
-0.0107056
0.00297211
0.00229391
-0.011916
0.00448948
0.00815955
-0.0100934
0.0169155
-0.00904541
0.00146407
-0.0089634
0.00141528
-0.00967335
-0.00756788
0.00132607
-0.00062769
-0.000104833
-5.60394e-05
1.24487e-05
4.35496e-05
4.03207e-05
3.10734e-05
2.47094e-05
2.0519e-05
-8.65248e-06
8.92824e-06
-0.000275678
0.000335182
3.09305e-06
6.5803e-05
4.69338e-05
3.80764e-05
-0.000453093
-2.60589e-05
0.000519385
-0.000416197
-0.000220962
0.000521049
-0.000526764
-0.000733591
-0.000821729
0.000607283
0.000609436
-3.4377e-05
-4.95684e-05
-0.000169896
2.14449e-05
0.000627629
-0.000104881
-0.000140046
-0.000101324
0.000483887
0.000485058
-0.000141599
-0.000102952
0.000601908
-0.000298769
-0.000660925
-0.000300736
0.00061782
-1.04599e-05
-1.59928e-05
-6.08985e-05
1.27344e-05
6.01167e-05
0.00110262
-9.15826e-05
4.70706e-05
-4.26704e-06
-9.15135e-06
-1.4903e-05
-2.18287e-05
-3.49653e-05
-6.42889e-05
-0.000122482
1.71011e-05
-5.61272e-05
0.000102474
-0.000759732
-0.000222784
0.000769497
-0.0014023
-0.000514526
-0.000533502
-0.0158236
0.0152046
-0.000448858
-0.000347142
0.000966429
-0.000644611
-0.00035583
0.00274752
0.00508246
0.00269531
0.0154843
-0.00728472
0.00167087
0.0109992
0.0125532
-0.00378007
0.00120232
-0.000152452
0.000791648
-0.00018825
6.253e-05
-0.00126837
-9.83158e-05
5.8263e-05
2.22563e-05
2.97472e-06
-4.47585e-06
8.69865e-06
-4.47371e-06
1.10386e-05
1.50114e-05
1.35351e-05
9.34331e-05
0.000185414
0.000274874
0.000369902
0.000475638
0.0006634
0.000410415
0.000123958
0.000231904
0.000134745
6.12548e-05
2.71048e-05
2.10893e-05
1.18755e-05
2.60334e-05
2.49457e-05
-0.00284232
0.00256965
-0.0031781
0.00391764
-0.00481017
8.51083e-05
-0.004351
0.00352222
7.24289e-05
1.66523e-05
1.26339e-05
8.03923e-07
0.00231942
1.73949e-05
-1.45863e-05
0.000492043
-6.46494e-06
1.52882e-05
4.94812e-05
-8.84224e-05
0.00056476
0.000442965
-0.000185534
7.49693e-05
-1.13202e-06
-4.726e-07
0.000279392
-9.36906e-06
-3.58328e-07
0.000194087
-0.000598242
0.000170246
2.74169e-06
6.85866e-05
4.97876e-05
5.41791e-06
-4.90401e-05
2.26993e-05
4.70893e-05
-0.000185889
-0.000170732
0.000566907
-0.00022212
-0.000415012
-8.94876e-05
0.000523428
-2.53412e-05
4.96129e-05
3.23754e-05
-1.49733e-05
2.68797e-06
1.63466e-05
3.2517e-05
6.03762e-05
1.33886e-05
4.72555e-05
5.87765e-05
8.04538e-05
1.63199e-05
-7.62908e-07
2.0607e-05
-1.60514e-06
0.00535378
-0.0065505
0.0058798
-0.00713161
0.00857106
-0.0102409
0.000165744
-0.009572
0.00793677
0.000114507
1.06425e-05
9.64666e-05
0.00011285
0.000139911
0.000137126
2.86016e-05
-2.20619e-06
2.60459e-05
2.59701e-05
4.0392e-05
3.1789e-05
4.67457e-05
0.000111557
0.000352423
0.000224513
0.00120274
0.00012975
5.83785e-05
2.49897e-05
6.12952e-06
-7.72494e-06
-2.89985e-06
-3.50015e-06
7.86432e-06
4.67564e-06
3.46286e-06
1.43818e-05
1.65628e-05
1.30464e-05
-4.6782e-06
-1.13485e-05
-5.4707e-07
-2.15217e-06
-4.33218e-06
3.46955e-06
6.83761e-06
1.18719e-05
1.91085e-05
2.46648e-05
3.72914e-05
3.02212e-05
3.68693e-05
7.03405e-05
6.00635e-05
4.1175e-05
0.000101531
0.00025263
8.8575e-05
9.74959e-05
0.00350788
-0.00062213
0.00037793
7.89321e-05
0.000276753
0.00749289
-0.000302539
-0.00108964
0.00598662
0.00203167
-0.0261117
-0.00949342
-0.0168534
0.0164939
-0.0116915
-0.0125439
0.0148852
-0.0180001
-0.000977414
-0.00134779
-0.0168365
0.0150363
-0.000146164
-0.000756238
-4.12254e-05
0.000290514
0.000396896
0.00634087
0.00218253
-0.0115929
-0.0106292
0.0181023
0.00165528
-0.00427645
-0.00130675
0.00713732
0.000188662
-0.0082983
-0.0053945
0.00542518
-1.85707e-05
-0.00863581
-0.00593443
0.00475596
-4.63579e-05
0.00756721
0.00733768
0.000427312
0.0101343
-0.00990201
7.55832e-05
-0.00800563
-5.8739e-05
-0.000147168
-2.21875e-05
6.87503e-06
1.66744e-05
1.44301e-05
1.00972e-05
6.4099e-06
3.35244e-06
-2.51842e-06
-9.43067e-06
0.000154514
-0.00272
0.00326002
0.000235519
-0.00409904
0.00496802
0.0075613
-0.00888206
0.0110037
-0.0128635
-0.000158858
-0.0085319
0.000145812
0.00728901
-0.000137404
-0.00578414
6.38398e-05
0.0049306
-0.000410796
-0.000284535
-0.00446464
-0.000172279
0.00517095
-0.00575871
3.81409e-05
-0.0112918
-1.96425e-05
0.0133901
-0.0116966
2.46533e-05
-0.0138652
2.93819e-05
-0.0159621
-2.76179e-05
-0.0181952
-5.68967e-05
0.02053
-0.02132
-1.2403e-05
0.0231306
-5.5806e-05
-0.0227554
0.0226782
-6.97764e-05
-0.0207709
0.021
-0.0229709
-1.33525e-05
2.2528e-05
0.000118561
8.70563e-05
3.99733e-05
1.45831e-05
2.79085e-06
-4.20441e-06
-6.95815e-05
-8.85534e-05
-0.000180743
-0.000226484
-0.000208355
-0.00024777
-0.00610391
0.00722907
0.000471599
-0.00886768
0.0100285
0.0154227
-0.0181341
0.0207239
-0.0244782
0.000425375
-0.0185888
0.0017915
0.014372
-0.000102732
-0.012488
0.000465471
0.0104685
-0.000742524
-0.000341461
-0.00898072
-7.40909e-05
0.010668
-0.0115597
0.000124908
-0.0210919
9.05798e-05
0.0242215
-0.020731
-6.43873e-05
0.0229497
0.000164941
-0.0261134
0.015306
-1.40082e-05
-0.0156586
0.013656
-0.0171617
0.000545766
-0.00294622
-0.00146818
-0.00246402
-0.00413398
0.0179794
-0.0281638
0.00601172
-0.00631338
-0.0030077
-0.00172418
-0.00113723
-0.000799504
-0.000559321
-0.000323262
0.000162379
0.002786
0.00132215
-0.000684567
0.000464227
0.000207028
0.0016227
-0.00142464
0.00143155
-8.68978e-05
-0.000944243
4.09196e-05
0.00182177
-0.0017408
-7.54777e-06
-0.00197236
1.48104e-06
-0.00235281
-5.9912e-07
-0.00292271
1.67625e-05
0.00360706
-0.00368873
-6.25747e-06
-0.00438597
7.9981e-05
0.00539016
2.24647e-05
1.03856e-05
0.00462353
1.62818e-05
0.00302916
-3.03137e-06
-7.49968e-06
-2.2323e-05
-7.88547e-05
8.19181e-06
0.000943403
6.17222e-05
6.35948e-05
0.000331756
0.000584587
-0.00101059
-5.89698e-05
-0.00169414
1.22574e-05
-0.0034248
-2.82821e-05
0.00413902
-0.00364864
3.53758e-06
-0.00457284
5.67337e-06
-0.00552284
2.89842e-06
-0.00672644
1.49591e-05
0.00813799
-0.00834971
-1.72612e-05
0.0100473
-5.26174e-06
5.2019e-06
0.0069294
-1.66653e-07
2.11234e-05
8.87529e-06
-6.76599e-06
0.00295848
-2.36529e-05
0.00194952
0.000120204
-3.28136e-05
0.00166004
-5.04279e-06
9.04644e-05
-0.000163271
0.00211626
-0.00010158
-0.000173855
-0.00297656
-0.000138672
-0.00388207
1.76816e-05
-0.00778033
-2.99996e-05
0.00934328
-0.00820784
1.97647e-05
-0.00994635
1.80598e-05
-0.0116677
-4.18036e-06
-0.0136376
-1.31858e-05
0.0158332
-0.0163488
-5.06467e-05
0.0186189
-3.68539e-05
-5.44687e-06
1.29716e-05
1.81913e-05
3.30711e-05
2.75246e-05
2.31006e-05
1.80482e-05
1.38039e-05
1.42161e-05
1.78408e-05
1.12742e-05
0.000129931
0.000205747
0.000289624
1.00753e-05
3.54814e-05
2.5695e-05
2.14285e-05
1.60985e-05
-2.02681e-06
8.53007e-06
-0.000138058
-0.00229085
5.23904e-05
-0.00224136
0.00303853
0.000123654
-0.0035472
-0.0036322
0.00309556
0.00289497
0.000120208
-0.0033872
-0.00387353
0.00328167
-0.00242522
4.83502e-05
-0.00216719
0.00200133
0.00210511
0.00207541
0.00202616
5.30453e-05
-0.00238373
-0.00221614
-0.000138075
0.00294508
0.000125089
-0.00380302
-0.00347129
-0.000216115
0.00439356
0.000242702
-0.00581867
-0.00528247
-0.00542161
-0.00555418
0.000245788
0.00454171
0.00463516
-0.000214925
0.00431119
0.00023918
-0.00515163
-0.00592876
0.00492799
-0.000222057
-0.00319252
-0.0047796
8.04159e-05
0.00265793
-0.000145203
-0.00206882
-0.00304068
3.33034e-05
0.00188396
0.00223255
-0.00138292
0.000124582
-0.00134225
-0.000155842
-0.0013636
0.000123791
-0.0013399
-0.000155658
-0.00136603
0.000128225
-0.00136324
0.00220457
0.00190356
-0.000163311
-5.4772e-05
0.000168977
-0.000868957
-0.000951204
-0.000918493
-0.00102143
-0.00097194
-0.000980028
-0.000986136
-0.000886129
-0.0013543
-0.00101222
-0.000922946
-0.000949236
-0.000638994
-0.000262372
-0.000330294
0.000600867
-0.000675324
0.00167512
0.00169435
0.00168203
0.00168572
0.00174827
0.00162393
-0.000650525
0.000523713
-0.000260709
-0.000639054
-0.000332038
0.000627721
-1.51323e-05
6.14019e-05
6.23597e-05
0.000132711
0.000209483
-1.01601e-05
-0.000308728
0.00679379
0.000381743
-0.00795134
-0.00814993
-0.00753617
-0.00870307
0.000367313
0.0063179
0.00724214
-0.000315786
-0.00481869
-0.00725454
0.000170992
0.00396304
0.00593807
-4.82474e-05
0.000565416
-0.000865641
9.68429e-05
0.00085269
-0.00127399
0.00014013
0.0012679
-0.00178326
0.000249587
0.00200878
-0.00221684
0.000764225
0.00395282
0.000755744
0.00196896
-0.000500613
0.00106275
-0.000567211
0.000757252
-0.000450297
0.000562135
-0.000331634
0.000382686
4.94745e-05
-0.000588541
0.00394461
-1.96014e-05
0.000350643
-0.000483684
-2.31292e-05
0.000103744
-0.00027186
-0.000387898
0.000140408
3.43992e-05
-0.00184716
0.000125034
-0.0012845
-0.000164063
-5.21712e-05
0.000186507
-0.000693501
-0.0010871
-0.00107908
-0.000900486
-0.000294699
-0.00065906
-0.000251994
-0.000473102
-0.00150041
0.000239244
0.0021139
0.00161633
0.00175967
-0.000649429
-0.00141412
-0.000865656
0.000173506
0.000580782
0.000553554
0.000797871
0.00105422
0.00136376
0.000267908
-0.00702174
-0.0106428
0.00876337
0.00583473
-0.000482605
-0.000326646
-0.000184059
-0.000158823
0.000773539
0.000965295
0.00119445
-0.00064955
-0.000423159
0.0102567
0.000510484
-0.0105799
-0.0122868
-0.00979932
-0.015135
0.000368172
0.00834841
0.0125137
-5.82932e-05
0.000129304
6.47939e-05
4.20656e-05
7.71313e-05
0.000136755
-0.0135235
0.012103
-0.0141459
1.45043e-05
0.000284432
0.00019455
0.000126058
3.73865e-05
-3.66896e-06
0.0113564
4.09885e-05
4.99527e-06
0.0155935
0.000239308
-2.34184e-06
0.000376419
0.000455219
-7.50843e-05
1.19001e-05
3.81041e-05
1.6796e-05
2.60873e-05
-2.29615e-05
2.82372e-05
2.59991e-05
4.70122e-05
9.41456e-06
3.83112e-05
3.39517e-05
1.47567e-05
1.78616e-06
2.93536e-06
2.2242e-06
1.50675e-05
0.00034037
0.000572625
0.000398763
0.000320183
0.000323568
0.000359127
0.000182148
0.000181407
4.14685e-05
0.000120415
0.00153274
0.0002458
0.000470496
0.000464685
0.000583701
0.000589238
0.000677395
0.000586023
0.000593899
0.000823116
0.00074053
-0.0124423
0.0132163
0.00094166
-0.0163211
0.000611657
0.000405888
-0.00275703
-0.00371287
-0.0219852
-0.0231709
-0.0384522
0.00971671
0.00326164
0.0182759
-0.00660872
0.0104511
-0.00115894
-0.0117914
0.0106817
-0.000248103
0.00745776
-0.000265687
0.0100457
-0.0110463
-0.000902146
-0.000280114
-0.000339079
0.000139677
-0.00119309
0.00780202
-0.000344799
0.000423708
0.000250943
0.000131074
0.000146107
7.3952e-05
6.64185e-05
-0.000138182
-0.000146889
-4.4929e-05
0.000137206
0.000824807
0.000124481
-4.57172e-05
-9.23e-05
0.00688955
-0.00827432
7.73176e-05
-0.0157827
1.7612e-05
0.0184818
-0.0159778
1.17813e-05
-0.0184572
2.98938e-05
0.0182585
-5.55351e-06
8.98768e-06
1.9059e-05
3.89904e-05
8.91141e-05
0.000658047
0.000134152
4.7208e-05
2.27207e-05
9.3919e-06
9.1582e-06
8.23682e-06
5.76847e-06
3.48178e-06
0.00295584
5.92589e-06
0.0036628
2.85252e-06
0.00236803
0.00192712
6.45794e-06
0.0016753
0.000940352
2.4715e-05
4.12161e-06
-1.37966e-06
9.67267e-06
5.21369e-06
0.00452328
9.60414e-05
-0.000246134
0.00347648
-0.000157292
0.000126836
-0.000329604
0.00474277
-0.000191303
-0.000353676
-0.00645684
-0.000167044
0.00753699
-0.000421565
-0.000214949
0.000244805
0.000176756
1.8881e-05
0.00679461
1.49514e-05
0.00679095
3.24768e-05
4.74629e-05
0.00988063
2.43584e-05
0.011833
3.98138e-05
0.000114799
0.0138222
-0.000599119
0.00963747
-0.000387475
-0.000441262
-0.0123365
0.000169909
0.0128125
-0.00114595
0.000257246
-0.000295422
-0.00222018
-0.00574665
-1.75824e-05
-0.000890382
-0.000379218
0.000238814
0.000237209
0.0184766
2.78269e-05
-2.74233e-05
-6.83259e-05
-6.92634e-05
-0.000342047
-1.53914e-05
4.75474e-05
3.9041e-05
0.0161886
0.0137335
-1.16226e-05
-1.38704e-06
-4.16506e-05
-0.000102154
-0.000133951
-0.000586578
-0.000200201
-0.00018772
-8.88596e-05
-3.07901e-05
0.0139953
-3.60127e-05
3.52454e-06
1.45965e-05
0.000276148
0.000183744
9.31474e-05
-7.66935e-05
-1.97663e-05
0.000375076
0.000484863
0.000654928
-7.73368e-05
0.000278003
0.000261662
-0.000490797
0.00235561
0.00528404
-0.00362423
0.0240359
0.00178792
0.000897696
5.83779e-05
0.000931254
0.00126034
0.00116102
0.000953908
0.000765134
0.000573341
0.000586962
0.000178936
-3.39677e-05
-3.48991e-05
-0.00135412
-0.000675711
-0.00141442
-0.000697343
0.00018053
0.000543721
-0.000187081
-0.000145236
0.00269932
0.0032305
0.000130376
8.1262e-06
1.32338e-05
1.61344e-05
1.39623e-05
1.64799e-05
1.44542e-05
-5.99568e-05
0.000605924
0.00169024
0.000104863
5.95824e-05
8.13506e-06
-3.10621e-06
1.445e-05
1.46356e-05
1.6193e-05
1.76665e-05
-1.29308e-05
0.000204515
0.000285758
0.000294967
0.000383776
-6.19235e-05
-0.000553509
-0.0115025
0.000547475
-0.0111944
0.0125391
0.000804426
-0.0151393
-0.0156566
0.0128902
0.0120683
0.000706744
-0.0142636
-0.0167356
0.0138121
-0.00056207
0.011534
0.0171399
3.49135e-05
7.57082e-05
-0.000848439
0.00172488
0.00210405
0.00243584
0.00542663
0.00651763
0.0132269
0.0310185
0.003646
0.0162176
0.0240414
-0.00198315
-0.00115453
0.00126929
0.00138038
-0.000773065
-0.000588692
0.00894636
0.00959359
0.00937665
0.00909648
0.000539518
-0.0120118
-0.0109276
-0.000563365
0.0122692
0.000807196
-0.0162502
-0.0149242
-0.000759742
0.0155646
0.0165938
0.0147417
-0.000735081
-0.000154402
-0.00021403
-1.98767e-05
2.26056e-05
9.94328e-05
2.31883e-05
2.27161e-05
-3.3564e-05
-1.33174e-05
-0.00021724
0.0021821
-0.000245752
-0.000149965
-0.000340452
-0.000299093
-0.000186271
-0.000316589
-0.00014347
0.00587413
-0.000174342
0.000109147
2.54812e-05
8.51044e-06
0.000254061
0.00022105
-0.00259661
0.0132414
-0.00675096
-0.0240553
-0.0283788
0.00240771
-0.0134628
0.0056986
0.00184087
-0.00834348
-0.00924304
-0.000927235
-0.00136815
0.00894565
0.00828231
-0.000829926
-0.0081298
-0.000171461
0.0080674
-2.64615e-05
8.58348e-05
-2.44287e-06
8.14917e-05
0.000280393
0.000291859
0.000186872
4.65051e-05
3.4599e-05
-6.10209e-05
-5.56936e-05
2.69639e-06
-7.49539e-05
-2.95438e-05
-1.16188e-05
0.000371665
0.000462635
0.000465202
-0.000194498
0.000556289
0.00053599
-0.000361578
0.0215531
-0.00126341
0.00133369
-0.0239156
0.000518585
0.000296068
0.00297572
0.000357485
0.000618707
0.00196595
-0.000156412
-2.94432e-05
-0.000146461
0.000572057
0.00520553
-0.000346043
-0.000227884
-0.000136993
0.000106412
-0.014272
0.0163765
-0.000600584
1.06262e-05
-0.000756477
-0.00173665
-0.00194051
-0.000359932
-0.000176611
0.00627618
-0.000196236
-0.000210239
-0.000399778
-7.6226e-05
-0.000246881
0.00557662
-0.000371912
-0.000170874
0.00058139
0.000468668
-3.56435e-06