/*--------------------------------*- C++ -*----------------------------------*\
| =========                 |                                                 |
| \\      /  F ield         | OpenFOAM: The Open Source CFD Toolbox           |
|  \\    /   O peration     | Version:  2306                                  |
|   \\  /    A nd           | Website:  www.openfoam.com                      |
|    \\/     M anipulation  |                                                 |
\*---------------------------------------------------------------------------*/
FoamFile
{
    version     2.0;
    format      ascii;
    arch        "LSB;label=32;scalar=64";
    class       volScalarField;
    location    "2.1";
    object      gradTy;
}
// * * * * * * * * * * * * * * * * * * * * * * * * * * * * * * * * * * * * * //

dimensions      [0 -1 0 1 0 0 0];

internalField   nonuniform List<scalar> 
5322
(
0.650086
0.0610534
-0.00446043
-0.0273294
-0.0151561
-0.00538686
-0.000196515
0.00481618
0.0141575
0.0258556
0.000231019
-0.192675
-0.214148
-0.192222
-0.166865
0.361127
0.483039
-0.000741744
0.333549
-0.395423
0.376068
-0.382027
0.374739
-0.383505
0.382155
-0.374871
0.374486
-0.382276
0.381186
-0.376496
0.378814
-0.378793
0.391115
-0.335977
0.32228
-0.161092
0.316468
0.397269
0.198426
0.214828
0.293198
0.244878
0.253463
0.273676
0.260921
0.258331
0.26508
0.283194
0.262371
0.250569
0.31434
0.152215
0.170388
-0.561647
-0.0306525
-0.324996
0.17082
-0.426214
-0.024266
-0.370431
0.17345
-0.419148
-0.0216647
-0.367677
0.174148
-0.433749
-0.0279012
-0.355582
0.175766
-0.47716
0.0168124
0.419345
0.233582
0.326313
0.243752
0.308715
0.257604
0.307356
0.26097
0.361044
0.0328882
0.121378
0.183459
0.305402
-0.0260003
-0.127621
0.0363009
0.0713949
0.132196
0.0151584
0.0346015
0.00639673
0.00101257
0.00119138
0.444506
-0.237298
0.00715011
0.239253
0.00649472
-0.00623464
0.0326306
0.00639474
0.253325
-0.433366
0.387813
0.00522641
-0.00740811
-0.00137852
-0.000223762
0.000419467
0.000476282
0.000583575
0.00132686
0.00265926
-0.00450854
0.00118254
0.137349
-0.0564952
-0.0194092
-0.106005
0.13038
-0.0725663
-0.141403
-0.193424
-0.218572
-0.00880541
0.160207
-0.120892
0.0113286
0.132033
-0.131509
0.00553958
0.137253
-0.140734
-0.00444647
0.128182
-0.153767
-0.0122442
-0.035488
0.235411
0.19503
-0.127819
0.0847439
0.0658758
-0.134739
0.014518
-0.132018
0.103554
0.106422
-0.117346
-0.00177471
-0.109502
0.109905
0.118632
-0.106575
-0.000358024
-0.101868
0.12932
-0.00843564
-0.006379
0.406385
-0.318497
0.352178
-0.373967
0.0126439
-0.241342
-0.00516565
-0.00220691
-0.0451674
0.1166
-0.233295
0.232115
-0.389636
0.000888844
0.397972
-0.393158
0.409329
-0.418309
0.0017403
0.412105
-0.422198
0.437903
-0.436552
0.00162534
0.426861
-0.429767
0.443623
-0.441767
0.000996254
0.43148
-0.432548
0.4456
-0.443686
0.000838197
0.433493
-0.434871
0.447873
-0.444434
0.00108889
0.434322
-0.437548
0.450834
-0.443343
0.00143489
0.432638
-0.438782
0.451997
-0.434191
0.00184512
0.421755
-0.434189
0.437812
-0.237272
-0.00106677
-0.0174816
0.00727349
-0.00705191
-0.000434055
0.00277801
0.00368223
1.07777e-05
0.445462
-0.23619
0.00199475
0.281552
-0.0382473
-0.0112413
0.00927546
-0.0138599
0.238543
-0.438675
0.00254345
0.00195203
0.00548593
0.00354869
0.00189344
0.000849672
5.5073e-05
-0.00117591
-0.00295906
0.00439577
-0.00158242
-0.110566
-0.117766
-0.117819
-0.110823
0.0226364
0.0390177
0.0245986
-0.14889
0.0780977
-0.157892
0.0391091
0.0226813
0.0246455
-0.156041
0.0543388
0.1493
0.0963841
-0.148831
0.0782583
0.162074
0.226301
0.239023
-0.391508
-0.390619
-0.420403
0.30498
-0.378353
0.347212
-0.371762
0.359567
-0.370303
0.363972
-0.372004
0.364851
-0.377354
0.363226
-0.386238
0.359409
-0.394738
0.351781
-0.0774699
0.166892
-0.0531131
-0.00921396
0.304555
-0.363514
0.00351182
0.325905
-0.364802
0.00159284
0.336874
-0.358432
0.000723798
0.341925
-0.35277
0.000155876
0.342061
-0.350348
-0.000824141
0.336245
-0.351182
-0.00261324
0.319039
-0.357222
0.00835176
0.267234
-0.0246793
0.267
-0.357802
0.00836759
0.306575
-0.417982
0.167756
0.277386
0.207323
0.194053
-0.368749
0.241897
-0.344184
0.304377
-0.337239
0.323152
-0.336246
0.329166
-0.338887
0.3297
-0.34594
0.327192
-0.354404
0.321584
-0.350992
0.306539
-0.0505923
0.120764
-0.138327
-0.00261341
0.420202
-0.514254
0.00885411
0.461771
-0.502623
0.00444737
0.470431
-0.484864
0.00171452
0.470739
-0.475838
0.000405518
0.470723
-0.473188
-0.000932707
0.46999
-0.47316
-0.00196059
0.462198
-0.47732
0.0106383
0.411019
-0.475257
0.166761
0.387447
0.3443
-0.172874
0.328257
-0.0779225
0.061855
0.393318
-0.340412
0.317588
-0.299008
0.478921
-0.421672
-0.00334163
-0.471929
0.402526
-0.411802
0.012098
0.433553
0.0193532
0.00839701
-0.122698
0.0120308
-0.00985253
0.00643704
-0.0023531
-0.000843102
0.39638
-0.397157
0.397436
-0.413157
6.68438e-05
0.426234
-0.428964
0.433861
-0.433738
0.000300708
0.437037
-0.4354
0.440103
-0.435532
0.000354332
0.44359
-0.432969
0.444732
-0.42198
-0.000684021
0.000575274
0.000951866
0.00317272
0.00178005
0.00114885
0.447574
-0.432341
0.00227847
0.511258
-0.505027
0.452387
-0.41772
0.00438038
0.507364
-0.482186
0.307291
-0.213802
-0.341465
-0.023201
-0.00527144
-0.123433
-0.0317158
0.00956383
0.227195
0.296573
0.0236549
-0.483264
0.367192
0.00365051
-0.409942
0.374714
-0.000816365
-0.385795
0.379627
0.000168818
-0.372705
0.378363
-0.00266851
-0.372461
0.393143
-0.00673162
-0.355232
0.401475
-0.0252456
-0.316936
0.102872
0.154671
-0.190746
0.00160619
0.311579
-0.26519
0.311232
-0.304283
0.308949
-0.305698
0.497378
-0.435984
-0.00103238
-0.49862
0.434501
-0.433253
-0.00260579
0.492969
-2.77686e-05
-0.00111096
-0.000727038
-0.0285939
0.00647766
0.0398995
0.0433393
0.0176471
0.00755004
0.0249565
0.0176755
-0.022762
0.368511
0.118138
0.025686
0.0881873
0.0188265
0.00565882
0.00394402
0.00131022
0.000730322
0.00103381
0.00100999
-0.279756
0.00030124
0.285508
-0.28222
0.308132
-0.306496
0.311127
-0.307033
0.50479
-0.436339
0.000810109
-0.501004
0.441961
-0.436827
-5.97807e-05
0.500274
0.000968953
0.00100133
-0.000120474
-0.00290379
-0.00137322
0.00434923
0.00314868
0.00058022
0.013493
0.00967396
0.291742
0.00141939
-0.0134387
-0.00116581
-0.0195193
0.00252324
0.193887
0.37023
0.680538
0.0713287
-0.0103542
-0.00481422
-0.0184664
-0.375958
0.0016436
0.349824
0.318387
-0.351363
-0.00259215
-0.370393
0.00274265
0.361814
0.335692
-0.350174
-0.000786164
-0.370284
0.00237785
0.364994
0.342045
-0.352454
0.000218639
-0.37343
0.00632699
0.363945
0.342992
-0.358349
0.000850197
-0.380751
0.0177761
0.358067
0.340456
-0.366226
0.00180625
-0.391017
0.0432552
0.344534
0.334959
-0.370063
0.00384139
-0.39469
0.0964474
0.322332
0.322309
-0.0620692
-0.00895515
-0.0718697
0.848327
-0.378929
-0.38691
0.626734
0.162942
0.0676726
-0.585153
-0.120608
-0.0705858
0.300697
-0.31392
-0.00548383
0.00654118
-0.0393089
-0.0472832
-0.00486089
0.0125345
0.00725736
0.00295065
-0.00385707
0.00173317
0.00277034
0.000815751
8.81244e-05
-0.000752627
-0.00258046
-0.00495507
-0.0171786
-0.00920326
0.239648
-0.239753
0.0028805
0.00154557
-0.243519
0.239939
-0.000568303
0.000997053
-0.00108521
-0.0181758
-0.0115183
0.0435087
0.00471556
0.050069
-0.0177598
-0.0217764
2.37264e-05
0.0802016
-0.0932278
0.0936022
-0.0799024
-0.080887
-0.0691473
0.00258007
0.0928204
0.0835314
-0.0833807
-0.00248541
-0.0935228
-3.90266e-06
1.46866e-05
0.00594053
0.0168525
0.0150841
-0.0334382
0.000651974
0.000168993
0.000983142
0.00282111
0.00685147
0.00294541
0.0240037
-0.0188624
-0.0020936
0.013652
0.300223
-0.273921
0.316232
-0.311576
0.319504
-0.00767284
-0.283268
0.00824486
0.317482
-0.00116577
-0.0138809
0.00284932
0.00196531
0.00392128
0.00464601
-0.00334706
-0.047016
0.161118
-0.0718735
-0.309124
-0.0391719
-0.0372118
-0.608893
-0.167847
0.0214045
-0.245607
0.181588
0.00834175
0.0102808
0.219817
0.184394
0.0258442
-0.0206255
0.244518
0.219745
0.0278636
-0.0248536
0.221873
0.250608
0.0259718
-0.057284
0.184036
0.255913
-0.0886659
0.133397
-0.116311
0.12431
-0.49086
-0.266616
0.0482153
-0.121152
0.264012
-0.0159226
-0.432809
0.228313
-0.00456542
-0.271153
-0.268041
-0.389702
0.164041
-0.214333
-0.137232
0.238475
-0.494833
-0.0554889
0.348093
-0.428619
-0.0109683
0.373065
-0.392627
0.000873774
0.376137
-0.378573
0.00195767
0.374528
-0.374865
0.00213976
0.374357
-0.374032
0.00577844
0.376388
-0.371689
0.02304
0.388289
-0.333064
0.0937154
0.323064
-0.180404
0.342774
0.387147
-0.480087
0.409676
-0.481823
0.0110689
0.241116
-0.368925
0.166576
0.193119
0.209072
0.277362
0.238545
0.167634
0.322969
0.192338
-0.00159165
-0.0279964
-0.0156711
-0.00981407
-0.00590562
-0.0115339
-0.00607733
0.00174213
0.00619472
0.286745
-0.277875
4.63303e-06
0.000485398
0.000110391
1.75592e-05
-0.499228
0.437997
0.000193661
0.439118
-0.441358
0.000459545
0.441867
-0.443351
0.00110718
0.44352
-0.44555
0.00197569
0.442867
-0.445348
0.00251705
0.431655
0.00276816
0.00532861
0.000826509
1.81222e-06
-0.00125877
-6.03535e-05
0.000375556
0.000411844
0.000361762
0.000236359
0.000181572
0.000232934
0.0022731
0.00645028
-0.233433
0.00347632
0.0115594
-0.000602525
0.000417157
0.000629006
0.000407199
-3.1633e-05
-0.000776242
-0.0019501
-0.00285007
0.0104359
-0.00295692
-0.00782622
-0.0102336
0.204358
-0.218101
0.276528
0.00040066
-0.0372174
0.0310961
0.102637
0.000584042
-0.0912061
0.0858558
0.0880293
0.00032926
-0.0975668
0.0915905
0.0786095
2.15464e-05
-0.122545
0.116568
0.108946
-0.00207064
0.135718
-0.142908
0.139343
-0.150122
-0.0138639
-0.0829561
0.120521
-0.00990895
-0.114604
-0.00243399
-0.000764775
0.411469
-0.00143091
-0.413881
0.239275
-0.00832349
-0.247445
0.247893
-0.00539015
-0.259829
0.416878
-0.00392523
-0.416697
0.409158
-0.407235
0.404935
-0.41472
0.000946452
-0.412971
0.407481
-0.000830628
-0.247579
-0.00905239
0.249766
-0.212419
0.00196655
0.373761
0.133351
0.393766
0.143944
-0.203538
0.311123
0.0286453
-0.272481
0.294433
0.00589785
-0.285109
0.288297
0.00133056
-0.284908
0.287683
0.000192851
-0.28773
0.285517
-0.00137797
-0.287749
0.285986
-0.00690376
-0.294352
0.271834
-0.0311727
-0.311767
0.203786
-0.148306
-0.3955
-0.119766
-0.370362
0.242074
0.0226691
0.0121054
0.154701
0.0361965
-0.238198
-0.196282
-0.0545814
-0.151843
-0.09845
-0.0769025
-0.168183
-0.084032
-0.0892863
-0.167059
-0.244632
-0.253491
-0.167421
0.415979
0.0229401
-0.244772
-0.00857696
0.335584
0.394836
-0.00445456
-0.29114
0.00194107
0.325398
0.482757
0.00460761
-0.475439
0.00033502
0.480171
0.00114829
-0.477347
0.00129334
0.478586
0.000658045
-0.478714
-0.00101063
0.477095
0.000541937
-0.480256
-0.000176285
0.474966
-0.000971471
-0.483026
-0.00417424
0.466872
-0.00684732
-0.487932
-0.0171256
0.00212496
-0.299944
0.487287
0.00307187
0.313151
-4.08853e-05
-0.304814
0.49852
-0.000146448
0.308969
3.17397e-05
-0.307244
0.501573
-0.000113545
0.308365
-0.000286238
-0.307097
0.502692
0.000114872
0.307324
0.00043917
-0.308298
0.503332
0.00034415
0.307732
0.000101955
-0.308821
0.503575
0.000563079
0.30551
0.000515914
-0.312346
0.500645
-0.00135924
0.302382
8.70197e-05
-0.319245
0.47765
-0.0188569
0.342739
-0.0612964
0.0787696
-0.38908
-0.343113
0.179022
-0.327154
-0.0959848
-0.0663194
-0.684088
-0.37238
-0.326765
-0.232184
-0.167868
0.372735
0.431138
0.0312978
-0.2319
-0.0109563
0.487919
0.0145017
-0.46674
0.00551309
0.00355295
0.00745599
0.0188454
-0.321606
-0.0155369
0.156698
-0.0230562
-0.022201
-0.0422303
0.149811
-0.0495339
0.0204066
0.0179306
0.00047069
0.00135043
0.0012326
0.000720083
0.000614091
0.000186318
-0.00243636
-0.00177445
0.42714
-0.495168
0.00188003
-0.00257958
-0.00482212
-0.000359008
-0.407325
-0.000420855
0.415096
-0.433692
-0.000434212
0.4332
-0.439383
-3.06508e-05
-0.000136315
-0.00107415
-0.000522111
-5.19184e-05
0.000741349
0.000667264
0.000594085
0.000384246
0.000251124
0.000154182
0.00120854
0.0018868
0.0007479
0.411917
-0.414724
0.376912
-0.379128
0.380216
-0.379543
0.00212222
-0.198607
6.39232e-05
0.18733
0.00676044
-0.209626
-0.00074353
0.159274
-0.0162667
-0.0131227
0.0596393
0.00274369
-0.064363
0.474839
-0.00645893
-0.298141
0.00116492
0.305282
0.397473
-0.00285421
-0.313676
0.000429055
0.31792
0.384553
4.9023e-05
-0.31753
-6.01116e-06
0.314987
0.385282
0.00249505
-0.320809
-0.000591989
0.308672
-0.323945
-0.00109519
0.290681
-0.331219
0.0131113
-0.00940594
-0.00240516
-0.000913412
-2.55141e-05
0.000263025
0.000541019
0.00144725
0.00302042
-0.00447779
0.00136821
0.110716
0.11662
0.118018
-0.03512
0.159575
-0.0167336
-0.017376
0.16391
-0.0310102
0.149453
-0.0482319
0.00589087
-0.0132977
0.0128158
-0.00320306
0.00289886
-0.00234907
-0.392056
0.0103217
0.0115809
0.00246877
0.000140822
-4.304e-05
-0.0832396
0.082559
0.00259935
-0.0702174
0.107688
-0.0219327
0.00925951
-0.00376493
-0.00426962
-0.0209161
0.155311
-0.386155
0.0233263
-0.259316
-0.010613
0.328436
0.40326
-0.00948819
-0.29655
0.00263373
0.38831
-0.00712189
-0.307186
0.00122988
0.321462
0.389136
-0.00176564
-0.315616
0.000464973
0.318901
-0.318639
-0.000114425
0.315626
0.000599668
0.000217316
-0.000121687
-0.000384359
-0.00128941
0.00947116
-0.00624491
-0.000281765
0.00255325
3.71545e-05
-0.00237986
-0.0111866
-0.00942996
-0.00257246
-0.00255895
0.00236844
0.00666986
0.0012777
0.00588694
0.00161939
0.003811
-0.00845044
-0.0119458
-0.0255972
-0.0283662
-0.0607654
-0.05101
-0.0308312
-0.118263
-0.367984
0.0318358
-0.568558
-0.417766
-0.299511
-0.199084
-0.179696
0.0711795
-0.16152
-0.0158367
0.037853
0.00145392
-0.00625119
0.193781
-0.229064
0.281705
0.00266905
-0.0330053
0.0523997
0.119673
0.00506943
-0.0814332
0.111878
0.112138
0.00552407
-0.0873319
0.11568
0.10493
0.00418172
-0.116773
0.130631
-0.0062359
0.00370527
0.0187294
0.0802035
-0.34423
-0.499389
0.00543168
0.467427
0.0133784
0.00989626
0.302204
0.00181012
-0.495883
0.501835
-0.000763581
-0.474195
0.27869
-0.319994
0.285156
-0.031312
-0.297814
0.0161635
-0.331423
0.461985
-0.404709
0.420868
-0.00143721
-0.421895
0.000772778
0.418144
-0.00125091
-0.419815
0.00024808
0.421704
-0.00121998
-0.423457
0.411547
-0.473755
0.0272449
-0.328139
0.449084
0.0208663
0.0108051
-0.123503
0.13404
-0.138301
2.6051e-05
-0.115576
0.106167
0.00754851
-0.131985
0.0939437
-0.107208
0.00482786
0.191968
-0.11584
0.0710942
0.0177319
-0.136514
0.107361
-0.00212496
-0.00233068
-7.14394e-05
0.00453067
0.00281893
0.00145859
0.000644202
-2.55169e-06
-0.00114141
-0.00288628
0.00442948
-0.00137457
0.0694183
0.0798729
0.000147194
-0.0189258
-0.0117001
0.150488
0.0545293
-0.127723
0.0656782
0.0848618
-0.133698
0.0043621
-0.154805
-0.0120254
-0.0360959
-0.125039
0.196034
0.238431
0.0124487
0.0437429
-0.0106324
0.00597608
0.104579
-0.112384
-0.00136088
-0.117889
0.117556
0.11238
-0.104534
-0.000718773
-0.142629
-6.94684e-05
0.142582
3.18723e-05
7.22061e-05
-0.00259582
0.00851162
0.00375384
0.0637315
0.679916
0.369854
0.190294
-0.00152593
-0.0249578
-0.0139723
-0.00766377
-0.0103641
-0.0223655
-0.047072
-0.0514824
-0.104774
-0.116073
-0.246909
-0.416959
-0.371194
-0.374432
0.159077
-0.25001
-0.0969138
-0.105076
-0.323985
-0.426532
-0.378655
-0.378228
-0.383469
-0.377047
-0.427467
0.16132
-0.0459449
-0.134246
0.511797
-0.160489
-0.306514
-0.299305
-0.0782713
-0.0971157
-0.226586
-0.238128
-0.0627656
-0.0966295
-0.0236683
-0.00776659
-0.00139174
2.14554e-06
0.000220306
-0.000782362
-0.00447413
-0.00524176
-0.0193726
-0.00815853
-0.00296491
-0.00566935
-0.00352231
-0.00483794
-0.0118433
-0.0303953
-0.0127842
-0.0124371
-0.0144295
-0.00688463
-0.00194099
-0.000170669
-0.000359455
-0.00126022
-0.00126829
-0.00369356
0.303548
0.45855
-0.475139
0.466728
-0.473151
-0.000662968
0.322109
-0.337743
-0.00158512
-0.00289091
0.00151538
0.0052773
-0.344724
0.0158586
-0.157107
0.0969367
-0.0301825
-0.0093888
-0.0111475
0.014341
-0.134957
0.106012
-0.000795444
-0.000382072
-0.000390874
8.77702e-05
0.0691436
-0.00237731
0.000297802
0.000293673
-0.000200392
-0.043713
0.000223917
0.0181183
0.0112394
0.0148393
-0.012333
0.010365
-0.00016732
0.00107543
-0.0435927
0.13468
0.13371
-0.0845555
-0.0142447
-0.0669629
0.128491
0.0112866
0.00249067
5.48463e-05
6.68298e-06
-0.00255546
-0.00232986
-0.00240065
-0.000484211
-0.0104503
-0.000880074
-0.00240046
0.000801508
0.00537211
0.00122526
0.00349083
-0.336301
0.328024
0.468694
-0.474123
0.46947
-0.47927
0.00115959
0.328288
-0.338042
0.000253277
3.91566e-05
8.52239e-05
0.000519373
0.00126153
0.00302524
0.00255695
0.00566887
0.00311958
0.00661163
0.0067637
0.016248
0.0138051
0.0146417
0.00648927
0.0864049
0.00116812
0.00205837
0.000967552
0.000213023
-0.00078334
-0.0027935
-0.00310434
-0.00118677
-0.00111478
-0.00072926
-0.00016359
0.000106356
0.000237536
0.00039293
0.000348933
0.000207699
-0.0010469
0.00140669
0.00133097
3.27655e-05
0.000156698
0.000284749
0.000456408
0.000806466
0.000917892
0.000862489
0.00174312
0.00204092
0.00148498
0.00332374
0.0043512
0.00358713
0.022703
-0.0287956
-0.0410932
-0.00799873
0.00448827
0.00597709
0.0061234
-0.101079
-0.00170472
-0.000978841
-0.00150674
-0.00984306
-0.00383404
0.213987
-0.00279925
-0.285151
-0.00207032
-0.012929
-0.264062
-0.0114757
-0.0156042
-0.16568
-0.0736543
-0.126782
-0.315429
0.0305835
0.0804263
0.00542211
-0.00423691
-0.00356707
-0.00662479
0.00186512
-0.191589
0.27305
0.00193431
-0.0600934
0.0265332
0.0946175
0.000451858
-0.117925
0.0749173
0.0759929
-0.000548925
-0.122019
0.0802311
0.0668958
-0.00130047
-0.111817
0.0253528
-0.151281
0.0668264
0.105938
-0.147047
0.0444436
0.0218989
-0.00890853
-0.00198476
-0.000703628
0.000167537
0.000335277
0.000503798
0.00134191
0.00249655
0.00315017
0.00297146
0.00437175
0.421125
-0.420834
0.00182657
0.423053
-0.423047
0.380375
-0.380535
0.380916
-0.382384
0.00139184
-0.199567
-0.00101246
0.194522
0.00139281
-0.197412
-0.000219002
0.194092
-0.00114802
-0.000795026
0.0628012
0.00122169
-0.0622414
0.470968
-0.000255378
-0.301376
0.000110979
0.30433
0.393056
0.00183388
-0.317352
-0.0005981
0.374704
0.00710148
-0.323009
-0.00232484
0.29015
0.368367
0.00630427
-0.397524
0.00937862
-0.330386
-0.39366
0.00846614
0.357982
0.297749
-0.324739
0.0102773
-0.00876409
0.0030751
0.00158528
0.000885995
0.00017314
-0.000614459
-0.00162822
-0.000784201
-6.07801e-05
0.000668536
0.000415019
0.000593694
0.000254706
0.423914
-0.425128
0.00173839
0.424537
-0.42831
0.383097
-0.383704
0.388595
-0.375755
-0.0145446
-0.198176
-0.00626182
0.201022
-0.0013098
-0.204169
-0.00273801
0.195457
-0.00257565
0.00219071
0.0701767
0.00508096
-0.0557522
0.467693
0.00198722
-0.296064
-0.00232822
0.303124
0.365637
0.00564666
-0.407977
0.0109243
-0.289675
-0.517285
-0.00221614
0.447315
-0.0300213
0.168625
0.00130698
0.122103
0.0767821
0.0449086
0.0288774
0.228511
-0.14481
-0.0130717
0.00598997
0.000129399
-0.000507873
-0.000181248
-7.19053e-05
-0.000867214
-0.0051328
0.00164273
0.277908
-0.199379
-0.32266
-0.0737091
0.0613078
-0.158408
0.507809
-0.234167
-0.28613
-0.27689
-0.161919
0.381488
0.421803
0.0220167
-0.261049
-0.00944171
0.390516
-0.00839651
-0.290958
0.00283839
0.326029
0.391022
-0.00485765
-0.308994
0.0010235
0.321479
0.0017231
0.00196894
-0.380252
0.00588435
-0.366822
0.0338881
0.0346704
0.00106142
-0.204479
-0.34243
-0.238996
-0.168844
-0.356059
-0.125994
-0.0639692
0.0373476
0.0106265
0.482157
-0.00748636
-0.291242
0.00217369
0.309855
0.399495
-0.00746642
-0.308341
0.00120129
0.386539
-0.00269782
-0.314275
0.000409466
0.318437
0.387465
0.000258311
-0.387598
-0.000339347
0.000389823
-0.385263
0.00689886
0.00705414
0.0192744
0.00584676
-0.359878
0.0163278
-0.291053
0.00107196
-0.0533721
-0.0831539
-0.0225532
0.0226817
-0.00919609
-0.44454
-0.00123297
-0.00310764
0.0627678
0.00125296
0.472273
-0.00241099
-0.300544
0.000475803
0.303832
0.395693
-0.00025435
-0.316024
0.000112536
0.381564
0.00271363
-0.31988
-0.000803923
0.307577
0.380567
0.00607306
-0.392452
0.00102179
-0.000596179
7.64194e-05
0.000301284
0.0003379
0.000243998
0.000152987
8.0082e-05
-0.00118997
-0.00310437
-0.000746189
-0.000825896
-0.00103852
-0.000127079
0.000424308
0.000654573
0.000822511
0.000184924
0.000313174
-0.000193571
-0.000232709
-0.00110673
-0.000561703
0.431623
-1.73608e-05
-0.431463
0.433924
3.76938e-05
-0.438305
0.438518
-0.433395
0.437604
-0.00065296
-0.444478
0.437474
-0.435094
0.431149
-0.00193704
-0.439531
0.41959
-0.418126
0.418521
-0.41978
0.00189029
-0.431465
0.44022
0.00100183
-0.437818
0.000748627
-0.437878
0.445348
0.000600173
-0.443313
0.000276488
-0.439435
0.446043
-0.439762
0.440087
0.000111134
0.438597
-0.437981
-0.000165257
0.443175
-4.99129e-05
-0.445142
0.439118
-0.437852
-0.000955667
-0.5009
0.308643
-0.000467024
0.495651
-0.00237615
-0.498268
0.311862
0.00129893
0.482778
-0.423881
0.40668
-0.00148396
-0.413676
-0.000487022
0.403546
4.3804e-05
-0.403443
0.00090799
0.413997
0.0015097
-0.406784
0.424931
-0.484099
0.00343415
0.00512867
0.00467576
0.0172181
0.0117393
-0.242763
0.25038
-0.246699
0.246646
-7.33311e-05
-0.000727743
-0.00069304
-0.250359
0.2426
-0.0118723
-0.00684138
0.129737
-0.144904
0.000510815
-0.000946109
0.40284
-0.407837
0.408073
-0.403042
0.416553
-0.438544
-0.0119335
-0.00457059
-0.129736
0.00681724
0.144837
-0.00597681
0.00266259
0.00256447
7.5302e-05
0.00013228
0.000192855
0.000214032
0.000172697
-0.439451
7.10362e-05
-0.439722
0.440126
-0.4448
0.439703
0.000112942
0.445157
-0.438689
-0.000104869
-0.500711
0.307624
1.527e-05
0.499353
-0.306825
7.11159e-06
-0.280549
0.285612
0.00284411
-0.281349
0.286135
0.00389819
-0.280361
0.290374
0.00728047
-0.27832
0.296941
0.00625579
-0.281439
-0.00943137
-0.000110715
-0.00136967
0.00238535
0.000321234
0.00124041
-0.000173236
0.000343609
-0.00095848
0.00135753
0.00552076
0.290867
-0.305115
-0.000424018
-0.270231
0.307329
0.0300279
0.0123113
-0.000493048
0.0121249
-0.203334
-0.000289522
0.319157
0.0186052
-0.476289
-0.00306088
-0.00476389
0.024926
0.0171386
-0.0226969
-0.241727
0.369628
0.12001
0.393124
0.146117
0.0831457
0.0199708
0.0606815
-0.342667
0.437928
-0.41584
0.0118903
0.00197924
-0.0188718
-0.00503907
-0.00262364
0.00747358
0.00169537
0.000674088
0.000798979
0.00063211
-0.500443
0.307336
-0.307834
0.50118
2.01161e-05
-0.000779869
-0.00229199
-0.000506961
-0.00066413
-1.92766e-05
0.000146982
0.000814352
0.000606597
-0.438457
2.31477e-05
-0.443218
0.439533
-0.499808
0.306741
0.00131039
0.503115
-0.309732
0.0030058
0.000321268
-0.00100144
-0.00180349
-0.00597952
-0.00446387
0.324299
0.469489
-0.489855
0.0402539
0.00708835
0.003318
0.0117785
0.00573734
0.0138585
-0.342961
0.0120166
0.0328588
-0.348496
0.00275013
0.00150254
0.00107162
0.00197604
0.00301637
0.00411319
0.00188837
0.00123576
0.000710704
0.000531124
0.000415593
0.000611178
0.000809428
0.000570746
0.000442284
0.000586873
0.000735865
0.000613143
0.00107545
0.00111695
0.00058948
0.00130051
0.00108964
0.00154971
0.00114966
6.30772e-05
-0.000937535
-0.000327747
0.00217251
0.0040709
0.000345974
-0.0231871
0.00277288
0.00056122
0.000942244
0.00115286
0.00126821
0.00104836
0.00225412
0.00140359
0.00265252
0.00147293
0.423482
-0.431869
0.00216078
0.415226
0.00694793
0.00136352
0.00338183
0.0176149
-0.0680113
0.168604
-0.134376
0.283371
0.0414248
0.193644
-0.155837
0.126043
-0.135958
0.0860679
0.098087
-0.148489
0.0339835
-0.154767
0.0909446
0.0944923
0.185445
-0.00861264
-0.0023249
-0.0235977
-0.00113344
-0.107643
-0.0016685
-0.00075225
0.000657423
0.000887206
0.00167672
0.000988943
0.000658139
0.00085364
0.000652516
0.000170303
0.000594836
0.00035464
0.00240727
0.0011521
0.000494947
-0.472477
0.470439
0.0010655
-0.300516
-0.000713948
0.306176
0.385896
0.00509518
-0.318822
-0.00189887
-0.389526
0.00166385
0.000923924
0.000232328
0.000477483
0.000243169
0.00251365
0.000605732
0.000281399
0.000458062
0.000438274
0.000451053
-0.000600138
-0.00140903
-0.00312171
-0.353798
0.00631821
0.32585
0.0186792
0.337874
-0.298733
-0.326013
0.384651
-0.25784
-0.24279
-0.201152
0.00226191
0.00215602
0.00197086
-0.382396
0.0129396
-0.0014931
-0.0620675
-0.00011642
0.00494772
-0.000521479
-0.468456
-5.77966e-05
-9.57779e-05
0.0636252
0.00229832
-0.0616553
0.000446924
0.00288726
0.000859487
0.00162779
0.000414152
-0.391211
0.000461503
-0.380796
0.0012525
-0.000237726
-0.395025
-0.000231948
0.31575
-0.00315452
-0.00141511
-0.397864
0.00624183
-0.479023
0.0188492
0.0127977
0.0973213
0.010162
-0.491841
0.0339164
0.00133853
0.00396695
0.0279678
0.186294
0.441164
0.229088
0.336888
-0.0164993
-0.00467988
-0.401689
-0.0114383
-0.0227491
0.010632
0.227303
0.327777
-0.0172094
-0.00558121
-0.00169274
0.311073
-0.386637
-0.00577426
0.000402032
-0.0175897
-0.031639
0.000638722
0.209907
0.330112
-0.018154
-0.00595283
-0.00197736
-0.389608
-0.00194885
-0.000254007
0.000140645
0.00180455
0.00468047
0.00142113
-0.0258658
-0.00738104
-0.000321633
-0.00266047
-0.00640041
-0.00400075
-0.00686481
-0.00128172
0.191677
0.369608
-0.0690875
0.0596063
0.0265929
0.0330676
0.00922944
-0.00211166
-0.000793695
-0.000170204
0.000113529
0.000305284
0.000784028
0.00242496
-0.000127362
-0.000156742
-0.00106047
0.00157581
0.000884673
0.000978209
-0.00189015
-0.0184804
-0.025689
-0.00776417
0.00272881
0.0027552
-0.497558
0.43638
0.00131957
0.00137318
0.00137452
0.00263165
0.00327338
0.00311475
0.000658269
-0.00846394
0.124271
-0.415918
0.0211569
0.00118886
0.00110696
0.000622368
0.000602346
0.00109623
0.000403725
0.000367677
0.000335968
0.000536958
0.000191098
0.000242485
0.000236389
0.000900505
0.000894846
0.438704
-0.0001628
-0.43839
0.438589
-0.000652704
-0.434189
0.433895
-0.438111
0.444729
-0.000453873
-0.438371
0.436774
-0.436426
0.00166568
0.50535
-0.314065
0.00594884
0.00261718
0.00209211
0.00118836
-4.4745e-05
-0.0104836
-0.0176793
-0.0356687
-0.0841295
0.00454865
-0.0361841
-0.0119615
-0.00356149
0.0048548
0.00413272
-0.000500962
3.1647e-05
0.000964368
0.000498334
0.4457
-0.439502
0.440171
-0.445546
-0.000138918
-0.438683
0.44382
-6.79434e-06
-0.444929
-0.00063224
-0.435661
0.438636
-0.000247189
-0.440143
0.433155
-0.499362
-0.00159788
-0.00239733
-0.00102266
0.000309599
0.000587027
0.00221753
0.00513952
0.0213906
0.0859513
-0.02674
0.856395
-0.0204876
-0.00449628
-0.0156531
-0.150145
0.0303932
0.085982
0.00748015
-0.00124004
-0.0839861
-0.00136942
0.00257189
0.00623294
0.0003967
0.000481272
0.00656502
0.00348681
-0.264782
0.218172
-0.00870789
-0.00610307
-0.000414721
0.0447377
-0.0101769
0.0370167
0.0593208
0.0956321
0.190115
0.0471806
-0.122808
0.0483605
-0.154494
0.0379235
0.0210903
-0.117363
0.00661572
-0.00239115
0.000273292
-0.000584934
8.4849e-06
0.00221065
-0.00103613
-0.00232518
-0.000322004
-0.00272376
-0.000956518
1.5585e-05
-0.000141786
0.000184145
-5.28846e-05
-0.000148745
-0.000872899
4.13489e-05
0.00122719
0.00248053
0.010224
0.108526
0.455698
0.026102
-0.0809946
0.292753
-0.00471486
-0.062567
-0.020806
-0.0299058
0.850054
-0.016257
-0.00473378
0.00532509
0.00215647
0.00544658
-0.0759938
-0.00163895
-0.00176783
-0.0163713
-0.151176
-0.129185
-0.0779235
-0.304828
0.0310593
0.0759299
0.0038885
-0.00428314
-0.00449616
-0.0023894
-0.0938098
-0.00463976
0.044997
-0.0269935
0.0478905
-0.00269984
-0.0855787
-0.00505495
-0.00280022
-7.9765e-05
0.00521428
0.0190802
0.00250175
0.00331234
0.017736
0.0173044
0.000835284
-0.00177133
-0.00044577
0.00104961
0.00299631
-0.00136564
-0.00110931
0.0134938
0.323378
0.0140811
-0.000344341
0.00191687
0.000482651
0.000167077
-0.000131294
-0.00149101
0.00118301
0.439209
-0.501217
0.00128035
0.00053604
0.000442864
0.000454022
-0.502338
0.439954
0.00010528
-0.439528
0.445611
-0.445124
0.000354908
0.440108
0.000324122
0.000127698
9.50435e-06
-8.39879e-05
0.000557368
0.00105627
0.00019552
8.27835e-05
-0.000215717
-0.000958615
0.00151947
0.437987
-0.432039
0.431793
-5.65725e-05
0.000118854
0.000211615
0.000185319
-5.22312e-06
0.439847
-0.502844
-5.26793e-05
-0.00017907
0.00015911
-0.0006799
-0.000718708
-0.502846
0.438532
-0.000527086
-0.000391748
-0.00102775
0.00101635
6.76569e-05
0.000122498
-0.0130904
-0.020865
-0.0847795
-0.013528
-0.0014008
5.27197e-05
0.000428796
3.04764e-05
0.000112222
0.00123596
-0.00135593
-0.00155936
-0.000353799
-0.000230867
-0.00190622
-0.00120661
-0.00113303
0.000319005
-0.00174101
0.0013227
-0.00195077
-0.00677742
-0.000585522
-0.00239604
-0.0150163
0.0107312
0.0299049
-0.000609005
0.00119584
-0.428939
0.00325826
0.0132463
0.0867613
-0.00176839
-0.00251773
-0.0186962
-0.176648
-0.108489
0.024657
-0.00314378
-0.00247991
-0.00195874
-0.0223765
-0.00285144
0.163094
0.049349
-0.00835407
0.0347287
0.245852
0.0214438
-0.00359986
-0.00643047
-0.00760011
-0.0114194
-0.283233
-0.252169
0.00186462
0.0255622
0.00946624
0.0410588
-0.0776575
0.000479845
0.00452391
-0.0115716
0.000168316
-0.384194
0.00534831
0.00109089
-0.000284742
-0.00167276
7.65488e-05
-0.00137003
-0.462672
0.320564
-0.37292
0.0194081
0.184417
0.315193
-0.000225236
-0.000346193
0.00110598
-0.0796445
-0.302046
-0.0209915
-0.0047898
-0.00117428
-0.00255714
-0.08896
0.000681685
-0.278796
0.00709927
-0.270746
-0.00209833
0.0369517
0.00136811
-0.106473
0.0501741
-0.0100586
0.334346
0.000392113
-0.285132
0.0213433
0.0890917
0.0167084
1.72943e-05
0.0014822
0.000311122
0.00503173
0.323334
-0.504545
0.00164428
-0.168238
-7.66403e-05
0.0220349
0.034687
0.019394
0.00655408
-0.000529076
-0.00758533
-0.020263
-0.0353334
0.000212963
0.20622
0.245252
0.244002
0.171028
-0.406265
-0.382332
-0.0189011
0.387262
-0.00823497
-0.473435
0.0797757
0.0130427
-0.0551983
0.0609135
0.00381715
-0.0567756
0.0589552
0.00238738
-0.0545686
0.0595928
0.00191131
-0.0541672
0.0585395
0.00010643
-0.0558878
0.05621
-0.00405538
-0.0610056
0.0509627
-0.015095
-0.0806384
0.0304011
-0.06516
-0.156319
-0.0749592
-0.23422
-0.287601
-0.281276
-0.239204
-0.254606
-0.264709
-0.253258
-0.273538
-0.260029
-0.258346
-0.269289
-0.25745
-0.274837
-0.273007
-0.254571
-0.33861
-0.15862
-0.152632
0.585238
0.0371886
0.329518
-0.162804
0.42628
0.0269515
0.378314
-0.167363
0.403598
0.0224149
0.390106
-0.167878
0.399064
0.0231809
0.410599
-0.162536
0.387347
0.0247345
0.503418
0.0607524
-0.0433207
-0.322614
-0.00305401
-0.24418
0.157137
-0.212401
0.18637
-0.20045
0.194396
-0.195142
0.197382
-0.194102
0.197525
-0.19251
0.200444
-0.186256
0.210801
-0.157428
0.242773
0.00432074
0.302863
0.213421
-0.0847584
0.238811
-0.222712
-0.0108748
-0.00522351
-0.122091
0.1289
-0.114758
0.212188
0.0287439
0.034496
-0.00855696