/*--------------------------------*- C++ -*----------------------------------*\
| =========                 |                                                 |
| \\      /  F ield         | OpenFOAM: The Open Source CFD Toolbox           |
|  \\    /   O peration     | Version:  2306                                  |
|   \\  /    A nd           | Website:  www.openfoam.com                      |
|    \\/     M anipulation  |                                                 |
\*---------------------------------------------------------------------------*/
FoamFile
{
    version     2.0;
    format      ascii;
    arch        "LSB;label=32;scalar=64";
    class       volScalarField;
    location    "2.1";
    object      gradTz;
}
// * * * * * * * * * * * * * * * * * * * * * * * * * * * * * * * * * * * * * //

dimensions      [0 -1 0 1 0 0 0];

internalField   nonuniform List<scalar> 
5322
(
-0.872035
-0.890304
-0.919227
-0.996474
-0.988762
-0.985999
-0.985232
-0.986114
-0.989024
-0.997169
-0.985823
-0.988632
-0.744025
-1.02576
-1.12164
-0.895354
-1.05837
-0.79234
-1.11557
-1.12573
-1.1328
-1.12768
-1.12817
-1.13409
-1.13395
-1.12765
-1.12796
-1.13316
-1.13348
-1.12782
-1.12751
-1.12959
-1.12172
-1.10378
-1.04938
-0.861469
-0.97983
-0.998631
-1.03083
-0.725911
-0.958622
-0.989313
-0.712898
-0.990777
-0.98109
-0.724738
-1.0045
-0.948181
-0.71508
-0.982107
-1.0999
-0.789323
-1.07415
-1.00923
-0.946313
-0.959532
-1.13817
-0.944663
-0.956222
-0.960553
-1.15206
-0.957395
-0.956615
-0.936863
-1.15125
-0.989576
-0.952051
-0.889776
-1.1239
-1.05055
-0.788577
-1.22896
-1.17045
-1.15381
-1.16607
-1.16039
-1.15979
-1.15571
-1.17077
-1.10852
-1.05447
-0.810512
-0.840128
-1.1357
-0.774581
-1.02979
-1.38966
-0.84882
-0.870205
-0.782039
-0.988978
-0.884553
-0.93329
-0.925901
-1.12401
-0.973289
-0.969954
-0.987262
-1.41431
-0.826116
-0.83304
-0.794819
-0.99474
-1.11078
-1.20835
-0.941315
-0.99865
-1.00103
-0.997846
-0.999313
-0.99976
-0.999502
-0.998439
-1.00194
-1.1537
-1.14251
-0.799531
-0.866391
-1.15399
-0.954877
-0.846398
-1.02947
-1.01504
-1.43002
-1.06524
-1.40026
-1.00539
-1.04982
-1.37623
-1.00114
-1.02748
-1.38865
-1.01665
-1.00834
-1.395
-1.03102
-1.01459
-1.43228
-1.06602
-1.40035
-1.00789
-0.84928
-0.954969
-0.854264
-0.801015
-1.15413
-0.866429
-0.860338
-0.79038
-0.795588
-1.15184
-0.861514
-0.858186
-0.790829
-0.797497
-1.15154
-0.863243
-0.85386
-0.848986
-1.12146
-0.894037
-1.05976
-1.23232
-1.20448
-0.764143
-1.11579
-0.792413
-1.07334
-0.734921
-0.993899
-1.027
-0.953996
-0.987873
-1.14661
-0.94314
-1.16151
-1.15339
-1.11389
-0.930948
-1.11196
-1.13812
-1.14047
-1.13006
-0.945484
-1.13136
-1.13485
-1.1363
-1.13247
-0.948836
-1.13351
-1.1348
-1.13579
-1.13244
-0.950185
-1.13389
-1.13533
-1.13684
-1.13105
-0.951221
-1.13336
-1.13639
-1.13895
-1.12865
-0.951827
-1.13194
-1.13589
-1.13976
-1.12692
-0.948731
-1.13159
-1.11578
-1.11946
-0.985043
-1.4151
-0.82643
-0.823502
-0.797561
-1.12341
-1.12033
-0.933366
-0.926149
-1.12054
-0.981021
-0.958063
-0.9935
-1.41008
-0.830838
-0.82335
-0.799027
-0.981457
-1.11713
-0.969588
-0.980959
-0.999293
-0.997668
-0.999745
-1.00016
-0.999743
-0.998538
-1.0019
-1.15365
-1.14279
-0.796007
-0.793542
-0.792926
-0.795958
-1.1514
-0.858121
-0.862943
-0.868226
-1.02722
-1.44301
-0.858363
-1.15145
-0.862677
-1.43492
-1.04669
-1.37161
-1.00043
-0.868434
-1.02712
-1.37191
-0.73244
-0.983987
-0.943722
-0.942627
-0.988174
-1.15254
-1.11408
-1.13978
-1.13009
-1.13597
-1.13235
-1.1357
-1.13236
-1.13699
-1.13097
-1.13952
-1.12831
-1.14104
-1.12575
-1.12648
-0.972399
-1.41448
-0.991048
-0.969596
-1.11317
-1.13429
-0.949218
-1.13552
-1.13332
-0.952262
-1.13687
-1.13391
-0.95153
-1.13602
-1.13398
-0.95036
-1.13551
-1.1333
-0.948904
-1.13582
-1.1307
-0.945467
-1.1397
-1.11077
-0.930691
-1.16309
-0.95407
-1.16179
-1.11202
-0.930698
-1.15372
-0.987931
-1.14635
-0.951922
-0.741366
-1.02921
-0.895536
-1.16679
-1.11635
-1.13761
-1.13669
-1.1353
-1.13657
-1.13653
-1.13548
-1.13845
-1.1335
-1.14285
-1.127
-1.14843
-1.11515
-1.1293
-0.977708
-1.39385
-1.03215
-0.934219
-1.1986
-1.21779
-0.918511
-1.2202
-1.21549
-0.921998
-1.2195
-1.21415
-0.9203
-1.21635
-1.2136
-0.91889
-1.2157
-1.21444
-0.918076
-1.21635
-1.21432
-0.91619
-1.22131
-1.2049
-0.903446
-1.23214
-1.05955
-1.12108
-0.993541
-1.04965
-0.915788
-1.07684
-0.732834
-0.836408
-0.951387
-0.873369
-1.19401
-1.16281
-1.12022
-1.11267
-0.928405
-1.15399
-1.17075
-0.909032
-1.15124
-1.01117
-0.961685
-0.945301
-1.39332
-1.12427
-1.0659
-1.43054
-1.02549
-0.956012
-0.976362
-0.948897
-1.16302
-1.11074
-0.940611
-1.14051
-1.13069
-1.13643
-1.13334
-0.935054
-1.13644
-1.13339
-1.13774
-1.13191
-0.932474
-1.13994
-1.12901
-1.14016
-1.12767
-0.927152
-0.934369
-0.935793
-0.935882
-0.937675
-0.934195
-1.1436
-1.12911
-0.950424
-1.13882
-1.12744
-1.14625
-1.12172
-0.945524
-1.14301
-1.09741
-1.22184
-0.938024
-1.38228
-0.839941
-0.803695
-0.817326
-1.08147
-0.878185
-0.781719
-1.14239
-0.765203
-1.10005
-1.14091
-0.764315
-1.12366
-1.1346
-0.762621
-1.13266
-1.13511
-0.762279
-1.1294
-1.1281
-0.762847
-1.13388
-1.12805
-0.764247
-1.13153
-1.11978
-0.76368
-1.1215
-0.859423
-0.828613
-1.03228
-0.901253
-1.0044
-1.04156
-1.16133
-1.17341
-1.16277
-1.16956
-1.13417
-1.13648
-0.946916
-1.13836
-1.13766
-1.13511
-0.94419
-1.13171
-0.93854
-0.887995
-0.89112
-0.792255
-0.923752
-0.896692
-0.860211
-1.00281
-0.995522
-0.985267
-0.994407
-0.77221
-1.25831
-0.696911
-0.935528
-0.993261
-0.970674
-0.974667
-1.00278
-0.987665
-0.984549
-1.00415
-0.974519
-1.04055
-0.914683
-1.02962
-1.03304
-1.16735
-1.16607
-1.1703
-1.16263
-1.13619
-1.13408
-0.949576
-1.137
-1.13994
-1.1359
-0.948228
-1.13531
-0.936028
-0.887743
-0.887628
-0.788524
-0.920546
-0.910503
-0.871686
-0.920507
-0.890189
-0.854709
-1.02694
-0.913811
-0.789462
-0.996027
-1.0006
-0.989475
-0.989277
-0.933447
-0.906121
-0.899719
-0.790406
-0.985088
-0.972249
-1.11346
-0.93919
-1.14068
-1.13867
-1.13163
-0.945628
-1.12976
-0.934722
-1.13648
-1.13532
-1.13363
-0.949156
-1.13262
-0.9331
-1.1358
-1.13585
-1.13345
-0.950733
-1.13334
-0.931969
-1.13646
-1.13752
-1.13186
-0.952038
-1.13311
-0.930368
-1.13723
-1.14052
-1.12825
-0.952749
-1.13264
-0.927917
-1.13451
-1.14228
-1.12514
-0.948896
-1.13319
-0.922658
-1.11284
-1.12353
-0.983442
-0.967859
-0.983601
-0.802481
-0.826523
-0.794273
-0.752555
-1.07835
-0.768256
-1.03703
-0.852756
-0.817112
-1.06773
-1.09478
-0.920329
-0.970624
-0.970572
-0.9783
-0.998386
-0.979068
-0.981379
-1.00498
-0.97714
-1.00481
-0.983018
-0.97595
-0.978609
-0.982667
-0.991156
-0.979245
-0.980101
-0.745737
-1.01854
-0.901514
-0.93757
-0.941957
-0.960096
-0.992059
-1.14928
-0.866426
-1.06757
-1.05415
-1.06551
-1.08124
-0.847064
-1.06414
-1.06796
-1.0629
-1.15037
-0.777365
-0.782479
-0.781096
-0.779854
-0.777348
-0.774596
-1.1521
-0.779845
-0.779025
-0.779298
-1.15216
-0.781147
-1.157
-1.15834
-1.15594
-1.02552
-1.02368
-0.951033
-0.937882
-0.935353
-0.935674
-0.935775
-0.935352
-0.887131
-0.788498
-0.917285
-0.907193
-0.867521
-1.03514
-1.0297
-1.18056
-1.14415
-1.205
-0.924149
-0.995927
-0.849585
-1.04453
-0.922399
-0.979165
-0.999408
-0.973266
-0.970514
-0.971533
-1.00733
-0.994095
-0.97899
-0.929753
-0.890665
-0.898957
-0.934791
-0.737567
-0.807677
-1.0926
-0.989517
-1.03645
-1.06257
-0.703805
-0.878505
-0.926583
-1.09489
-0.729418
-0.915193
-0.931713
-1.10018
-0.732352
-0.90369
-0.942661
-1.09609
-0.746156
-0.892834
-0.997867
-1.36315
-1.01738
-0.992755
-1.24816
-1.20986
-0.985374
-0.74565
-1.0742
-1.01
-0.945839
-0.957533
-0.950074
-0.715398
-0.980373
-1.10039
-0.789092
-1.05517
-0.810969
-0.840877
-1.13609
-1.07801
-0.872783
-1.14385
-1.11068
-0.896456
-1.13715
-1.12479
-0.899164
-1.13377
-1.12881
-0.900905
-1.13177
-1.13022
-0.90043
-1.13154
-1.13046
-0.902284
-1.12973
-1.13123
-0.887313
-1.12618
-1.11507
-0.865116
-1.0738
-0.911112
-1.04834
-0.992364
-1.05919
-1.23253
-1.20418
-0.903447
-1.16899
-0.893685
-1.12157
-1.02879
-0.741517
-0.950717
-0.984653
-1.14662
-0.939017
-0.986385
-0.987647
-0.997885
-0.988912
-0.991459
-0.98793
-0.985609
-0.919969
-0.892884
-0.856956
-1.03877
-1.03942
-0.917347
-0.91506
-0.975463
-0.991951
-1.13682
-1.13814
-0.936853
-1.13301
-1.13516
-0.950931
-1.13357
-1.13577
-0.952122
-1.1331
-1.13672
-0.952551
-1.13155
-1.13538
-0.948634
-1.12938
-0.994327
-1.00338
-0.982742
-0.98848
-0.976933
-0.972377
-0.974312
-0.976837
-0.979647
-0.983758
-0.992354
-0.982336
-0.983287
-0.741248
-0.984655
-0.938567
-0.987515
-0.986479
-0.997525
-0.988733
-0.985003
-0.982508
-0.980106
-0.978056
-0.980475
-1.0239
-1.0181
-0.743167
-1.32613
-0.999857
-0.959673
-0.932952
-1.10017
-0.733608
-0.735393
-0.804973
-1.14708
-0.767519
-0.779092
-0.794168
-1.15362
-0.771022
-0.782577
-0.787296
-1.14878
-0.787375
-0.800885
-0.869613
-1.44928
-1.03107
-1.00666
-1.01146
-1.00236
-0.849556
-0.818722
-0.872799
-1.44393
-0.863524
-0.865139
-1.15129
-0.958981
-0.956087
-0.935981
-0.99541
-0.712401
-0.985409
-0.986157
-0.726242
-1.00065
-0.947185
-0.955636
-0.957197
-1.16147
-1.15758
-1.16789
-1.15202
-0.956617
-0.902334
-0.982226
-1.15307
-0.966124
-0.733057
-1.02593
-0.900191
-0.731808
-1.22595
-0.676608
-0.934797
-0.819417
-1.00683
-1.01317
-0.846436
-1.03705
-1.02743
-0.87071
-1.03094
-1.03753
-0.853416
-1.03806
-1.03011
-0.874352
-1.02962
-1.03918
-0.851789
-1.03814
-1.03149
-0.872744
-1.02653
-1.04164
-0.849634
-1.01476
-1.02185
-0.830597
-0.951947
-0.694364
-1.25402
-0.902325
-0.773056
-1.43183
-1.01538
-1.06543
-1.39871
-1.00687
-1.04793
-1.37464
-0.99979
-1.0289
-1.38849
-1.01922
-1.00561
-1.39416
-0.747923
-0.959018
-1.14983
-0.945953
-0.954575
-1.16045
-0.930744
-1.11193
-1.11248
-0.939165
-1.13802
-0.916119
-1.13526
-1.21395
-0.789718
-1.21647
-0.761915
-1.21342
-0.788453
-1.21399
-0.761264
-1.21393
-0.788186
-1.21386
-0.761171
-1.21379
-0.78829
-1.21315
-0.761546
-1.21573
-0.789188
-1.21317
-0.762421
-1.21949
-0.790836
-1.20218
-0.760611
-0.896167
-1.14824
-1.12143
-0.943456
-1.16688
-0.91073
-1.16671
-1.13243
-0.938838
-1.16689
-0.911897
-1.1654
-1.13422
-0.937617
-1.16568
-0.911895
-1.16639
-1.1349
-0.93712
-1.16707
-0.912073
-1.16518
-1.13589
-0.93776
-1.1665
-0.912494
-1.1663
-1.13775
-0.939235
-1.1697
-0.912294
-1.16589
-1.14292
-0.944953
-1.15554
-0.900847
-1.20002
-1.15362
-0.961783
-0.869621
-0.835624
-0.733742
-0.993873
-1.04972
-0.911276
-1.07416
-0.86276
-0.896911
-0.908735
-0.935591
-0.939671
-0.981952
-1.14707
-0.94348
-0.9858
-0.951072
-1.16692
-0.903892
-1.20397
-0.792412
-1.22102
-0.7635
-0.996815
-0.986753
-0.9743
-1.15451
-1.02381
-1.43386
-0.862926
-1.15146
-0.858615
-0.867128
-1.06636
-1.06154
-1.05328
-1.06225
-1.06877
-1.44256
-1.02488
-0.954394
-0.939026
-0.940334
-0.943084
-1.14197
-1.14353
-0.944591
-0.989048
-0.981323
-0.975162
-1.15314
-0.931176
-1.11379
-1.13871
-0.945803
-1.13059
-1.13548
-0.949367
-1.02814
-0.937685
-0.938654
-0.937993
-0.938067
-0.935633
-0.937906
-0.937834
-0.937199
-0.936685
-0.935461
-0.938062
-0.939278
-1.11432
-1.13884
-1.22058
-1.21388
-1.21576
-1.21321
-0.762208
-1.13159
-0.789179
-1.12996
-0.763727
-1.13266
-0.792188
-1.12644
-0.886139
-0.851249
-1.0387
-0.912388
-1.02922
-1.1683
-0.939155
-1.13714
-0.945658
-1.13393
-1.13533
-0.937267
-1.13383
-0.949117
-1.13333
-1.13381
-0.935091
-1.13333
-0.948727
-1.13419
-1.13425
-0.933736
-1.13473
-0.917227
-1.13571
-1.13397
-0.915763
-1.13927
-1.11279
-0.903763
-1.0026
-1.00309
-0.99858
-0.999499
-0.99984
-0.99959
-0.998522
-1.00205
-1.15371
-1.14224
-0.796609
-0.790133
-0.794539
-0.861177
-1.44162
-1.02508
-1.02577
-1.42912
-0.860686
-0.865775
-1.06839
-1.06569
-1.12481
-1.06494
-1.43466
-1.02356
-0.950967
-1.16809
-0.904249
-1.00108
-0.981933
-1.1561
-1.15009
-0.779099
-0.776532
-1.15215
-0.773954
-0.789676
-1.15172
-0.982441
-0.940283
-0.891257
-0.945158
-1.39157
-1.20207
-0.962167
-1.15192
-0.928207
-1.12149
-1.1103
-0.94296
-1.13817
-0.94528
-1.12949
-0.936818
-1.13435
-0.948094
-1.13323
-1.13228
-0.933853
-1.13491
-0.917555
-1.13533
-1.13489
-0.917433
-1.13522
-0.935715
-0.935804
-0.9358
-0.935556
-0.938104
-0.98186
-1.15605
-1.14989
-0.960301
-1.005
-0.982526
-1.00098
-0.981607
-0.960246
-1.00477
-0.938597
-0.940452
-0.936754
-0.936285
-0.937396
-0.934683
-0.984995
-0.98243
-0.980112
-0.982966
-0.980202
-0.908599
-0.88974
-0.893071
-0.90013
-0.734097
-1.01916
-0.75044
-1.35932
-0.981282
-0.958447
-0.960295
-1.11287
-0.986043
-1.03285
-0.98111
-1.34965
-0.966997
-0.958053
-0.931415
-1.0955
-0.731905
-0.745287
-0.812536
-1.14073
-0.764265
-0.7909
-0.804524
-1.14705
-0.767706
-0.792087
-0.800023
-1.14224
-0.785642
-0.805633
-1.16282
-0.998782
-0.933409
-0.926173
-1.13363
-1.20878
-0.918596
-1.22167
-0.763875
-0.915301
-1.18281
-0.93554
-1.12314
-1.14858
-0.936521
-1.10058
-1.18656
-1.13389
-1.0515
-0.837347
-0.958308
-0.890169
-1.10827
-1.17182
-1.15376
-1.11848
-0.94042
-1.10879
-0.932031
-1.1145
-0.940198
-1.10899
-0.932773
-1.11551
-0.942795
-1.10938
-1.17462
-1.14791
-0.956516
-0.848234
-1.00933
-1.15412
-0.845338
-1.01289
-1.03052
-0.991021
-0.864364
-0.863325
-0.868588
-1.43522
-0.86969
-0.958327
-1.37614
-1.03425
-0.994271
-0.844774
-0.858408
-1.16001
-0.797205
-0.7967
-1.15668
-0.984644
-1.00565
-1.00116
-0.998007
-0.999476
-0.999887
-0.999599
-0.998496
-1.00198
-1.15371
-1.14253
-0.773934
-0.777114
-1.05738
-1.05325
-1.06511
-1.37133
-1.04707
-0.848842
-0.85407
-0.95463
-0.866491
-0.846757
-1.01513
-1.4323
-1.06551
-1.3914
-1.00641
-1.39794
-1.12487
-1.0822
-1.06595
-1.42955
-0.860786
-0.861342
-1.15184
-0.792619
-0.792114
-0.861516
-0.860684
-0.865158
-1.02063
-1.40676
-1.02119
-1.44101
-1.02446
-1.02549
-0.945231
-0.792878
-0.898692
-0.905657
-0.935955
-0.98923
-0.988857
-1.00048
-0.991782
-0.9882
-0.985855
-0.983606
-0.981642
-0.978439
-0.982855
-0.981718
-1.01438
-0.747725
-0.819732
-0.82438
-1.4151
-0.958592
-0.968824
-0.999069
-1.32253
-0.740599
-0.822685
-0.825189
-0.753023
-0.833013
-0.848225
-1.38982
-0.997368
-1.02976
-0.782469
-0.870286
-0.949016
-0.893262
-0.906619
-0.983808
-1.02567
-1.02326
-0.983148
-0.981531
-1.01202
-1.00614
-1.00001
-0.997202
-0.996365
-0.980491
-0.978158
-0.977877
-0.972401
-0.985693
-0.924032
-0.921926
-0.920994
-0.92007
-0.918268
-0.913974
-1.00689
-0.991134
-0.991739
-0.98872
-0.985301
-0.982673
-0.98213
-0.98005
-0.994942
-0.9949
-1.13954
-1.22065
-1.21365
-1.21593
-1.21308
-0.917242
-1.13612
-1.13473
-0.915645
-1.0396
-0.937907
-0.939197
-1.1137
-1.02392
-1.43406
-1.00046
-0.951173
-0.981617
-1.00108
-1.15395
-0.799696
-0.791132
-1.06942
-1.06081
-1.06876
-1.05695
-0.773218
-1.15223
-1.05738
-1.06558
-0.86774
-1.08226
-1.05782
-1.05253
-1.06479
-1.06781
-1.12505
-1.06567
-1.06822
-1.06971
-1.08298
-0.79861
-0.866795
-0.954543
-1.15388
-0.854559
-0.848437
-1.00118
-0.982783
-1.15622
-1.1496
-0.960308
-0.982779
-0.940471
-0.891289
-0.792391
-0.888109
-0.789464
-0.935298
-0.934865
-0.935521
-0.933168
-1.13552
-1.13586
-1.21477
-1.21217
-1.2155
-1.21089
-0.918672
-1.13613
-1.13552
-0.917787
-1.0432
-0.887594
-0.788229
-0.887299
-0.787701
-0.935493
-0.932014
-0.937513
-0.933568
-0.937091
-0.932339
-0.935593
-0.933504
-0.884493
-0.788435
-0.930646
-1.04317
-1.04396
-1.04369
-1.04301
-1.03964
-1.02313
-1.00395
-1.0021
-1.02705
-1.00815
-1.00364
-1.02797
-1.0093
-1.00382
-1.00229
-1.0242
-1.02334
-1.0039
-1.00728
-1.0051
-1.00701
-1.00747
-1.00408
-1.02806
-1.00921
-1.00355
-1.02696
-1.00771
-1.00151
-1.02188
-1.03766
-0.930991
-1.11628
-0.740374
-1.16877
-0.996657
-0.980112
-1.14535
-0.78707
-1.15917
-1.06784
-1.03623
-0.977313
-1.34012
-0.969289
-0.962615
-0.903574
-1.07026
-1.0804
-0.851072
-0.963093
-1.07165
-1.07956
-0.989088
-0.96839
-1.33229
-0.981547
-1.03921
-1.0454
-1.04802
-1.03974
-0.977403
-1.07015
-0.944726
-0.942801
-1.09625
-0.746707
-0.730989
-0.800142
-1.14252
-0.785038
-0.773949
-0.787377
-1.14927
-0.785988
-0.777438
-0.780473
-1.14419
-0.801672
-0.869853
-1.43852
-1.05861
-0.99282
-0.866969
-0.862065
-1.15661
-0.983833
-1.00542
-1.00196
-1.00344
-1.00395
-1.00361
-1.00214
-1.00494
-1.024
-1.03955
-0.916415
-1.13495
-1.13561
-0.917953
-1.13545
-1.13537
-1.2145
-1.21216
-1.21515
-1.21078
-0.761429
-1.12963
-0.787277
-1.13229
-0.761505
-1.13122
-0.787892
-1.13203
-0.899679
-0.862612
-1.03413
-0.912318
-1.03368
-1.16523
-0.936602
-1.13373
-0.945957
-1.13607
-1.13503
-0.936493
-1.13116
-0.948069
-1.13465
-0.93642
-1.13006
-0.945257
-1.13936
-1.14034
-0.939247
-1.11497
-0.932201
-1.11092
-1.1133
-0.940597
-1.13884
-1.13968
-1.10983
-0.931747
-0.983026
-0.93881
-0.936697
-0.937379
-0.937654
-0.937705
-0.93753
-0.887997
-0.887419
-0.935639
-0.933205
-0.935546
-0.931947
-1.13522
-1.13561
-0.919209
-1.13475
-1.13675
-1.21763
-1.20945
-1.22098
-1.20903
-0.76381
-1.11138
-0.787104
-1.13759
-0.762125
-1.12551
-0.787074
-1.13434
-0.89846
-0.860787
-1.02972
-0.913963
-1.03741
-1.15453
-0.935663
-1.12322
-0.941542
-1.14792
-1.13434
-0.940549
-1.11763
-0.924999
-1.10112
-1.18615
-0.936754
-1.13363
-1.05061
-0.957626
-0.889583
-0.95752
-0.989729
-0.836477
-0.872101
-1.14408
-1.07858
-0.784073
-0.904171
-0.911333
-0.915697
-0.917602
-0.918621
-0.919616
-0.92177
-0.89684
-0.90699
-1.04983
-0.911295
-0.694213
-0.835915
-0.951678
-0.868559
-1.25492
-0.771436
-0.899351
-1.15188
-1.01058
-0.907071
-0.956313
-1.15208
-0.930997
-1.10903
-0.940399
-1.13755
-0.945099
-1.13117
-1.12915
-0.935181
-1.13521
-0.917513
-1.13548
-0.996452
-0.981661
-1.13639
-0.979994
-1.14117
-0.991822
-0.9908
-0.977901
-0.980647
-0.940275
-1.01912
-0.994055
-0.936868
-0.992199
-0.831898
-1.01946
-0.901205
-1.15378
-0.944951
-1.14191
-0.943479
-1.13233
-1.13332
-0.938845
-1.13489
-0.948355
-1.13278
-0.935589
-1.13387
-0.948818
-1.13379
-1.13345
-0.933432
-1.13373
-0.982395
-0.982461
-1.13475
-0.980971
-0.979949
-0.983322
-0.98792
-1.14333
-0.981669
-1.17257
-0.984738
-0.9711
-1.01586
-1.00255
-0.995408
-0.974295
-1.16756
-1.00339
-0.864601
-1.03434
-0.912606
-1.16634
-0.937394
-1.13522
-0.946016
-1.13474
-1.13556
-0.936609
-1.13282
-0.949047
-1.13415
-0.93529
-1.1324
-0.947962
-1.13499
-1.1356
-0.935045
-1.13001
-0.935565
-1.02691
-1.02767
-1.00907
-1.00424
-1.00388
-1.00239
-1.00518
-1.00393
-1.02308
-1.02695
-1.0428
-0.937803
-0.93804
-0.938022
-1.04317
-1.02787
-1.0278
-1.00922
-1.0081
-1.0282
-1.02434
-0.945655
-1.14026
-0.940185
-1.13935
-1.13046
-0.936943
-1.13557
-1.13613
-1.12993
-1.13014
-0.938965
-1.13561
-1.13789
-1.1335
-1.14288
-0.942893
-1.13915
-1.11321
-1.10984
-1.11078
-1.11229
-0.942819
-1.14183
-1.13986
-0.945651
-1.12965
-0.938927
-1.13728
-1.13603
-0.948764
-1.13249
-0.937485
-1.13627
-1.13476
-1.13465
-1.13514
-0.935772
-1.13331
-1.13298
-0.948756
-1.13278
-0.937489
-1.13441
-1.1369
-1.13545
-0.946298
-1.13732
-1.16673
-0.938961
-1.13246
-0.944077
-1.14207
-1.16815
-0.944644
-1.12142
-1.11075
-1.17153
-0.956093
-1.15311
-0.931522
-1.16294
-0.954721
-1.16148
-0.931481
-1.15447
-0.956016
-1.1701
-1.11165
-1.12036
-0.928675
-0.982815
-0.974811
-0.980077
-0.750546
-1.01553
-0.965351
-0.9888
-0.990475
-0.746537
-0.977339
-0.94391
-0.963664
-1.01671
-0.750403
-1.39985
-1.03086
-1.00441
-0.86541
-1.14999
-0.975899
-0.946182
-0.947832
-0.974208
-0.909791
-1.00866
-1.15182
-0.846254
-1.03073
-1.39943
-1.00505
-1.42932
-1.02557
-0.940528
-0.939303
-0.937537
-0.938207
-1.02894
-0.949526
-1.13384
-0.935247
-1.13379
-1.13453
-1.13327
-1.13674
-0.936797
-1.13385
-1.13563
-0.946727
-1.13542
-1.16675
-0.937261
-1.1342
-1.16655
-0.913227
-1.03507
-1.03462
-0.86373
-1.03493
-1.03468
-0.863886
-1.03408
-1.03576
-0.861875
-1.03069
-1.03838
-0.858079
-1.01184
-0.971451
-0.999831
-0.973338
-1.00283
-0.973857
-1.00335
-0.973903
-1.00368
-0.973929
-1.00407
-0.865295
-1.03047
-1.16824
-0.912957
-1.0389
-1.01679
-0.852539
-1.00298
-0.974617
-0.971153
-1.01984
-0.901819
-1.20227
-0.961696
-1.15215
-0.92877
-0.982768
-0.983412
-0.994293
-0.772185
-0.901015
-1.25443
-0.694354
-0.952554
-0.832076
-0.991889
-0.936948
-0.836297
-0.868844
-1.01
-0.908606
-1.15183
-0.940344
-0.979792
-0.97489
-0.987582
-0.99401
-0.986984
-0.984061
-0.982877
-0.936497
-1.13395
-1.16762
-1.16558
-1.13508
-0.990476
-0.989958
-0.989465
-0.983743
-0.980483
-0.977146
-0.975732
-0.99076
-0.946716
-1.135
-0.936679
-1.13138
-1.13721
-1.13101
-1.17143
-0.936064
-1.13652
-1.16322
-0.9135
-0.761434
-0.997548
-0.984441
-0.987464
-1.00142
-1.13717
-1.21814
-1.20951
-0.787625
-0.88584
-0.886886
-0.787527
-0.935135
-0.930832
-1.13532
-0.934029
-0.929621
-1.13427
-0.919853
-1.0425
-0.937755
-0.937024
-1.03846
-1.0225
-1.02692
-1.0078
-1.00914
-1.02884
-1.00374
-1.00682
-1.00367
-1.00423
-1.02905
-1.02801
-1.0272
-1.00806
-1.0278
-1.04269
-1.04304
-0.918439
-0.997431
-0.996827
-0.982629
-0.984544
-0.990295
-0.981704
-0.98038
-0.974295
-0.986922
-0.935145
-0.996799
-0.986883
-0.984589
-0.986682
-0.989258
-0.99475
-0.991947
-0.989419
-1.00282
-0.999137
-1.13328
-1.13725
-0.918972
-1.13205
-1.00807
-0.992779
-0.987125
-0.992096
-0.892311
-0.95037
-1.21061
-1.24756
-0.745566
-0.997555
-1.36342
-1.01709
-0.849795
-1.00218
-1.01326
-0.866357
-0.868921
-1.45131
-1.03712
-1.00486
-1.27784
-1.10246
-1.10388
-1.04463
-1.06712
-0.790493
-1.16113
-0.981639
-1.00368
-1.00159
-1.02793
-1.0291
-1.028
-0.937399
-0.935113
-0.930624
-0.933946
-0.929337
-0.885563
-0.886614
-0.887066
-1.16704
-1.16281
-0.936131
-1.13083
-0.945199
-1.13954
-1.13358
-0.937175
-1.12758
-0.944922
-1.13101
-0.936878
-0.937478
-1.02839
-1.04295
-1.04225
-0.92032
-1.02699
-1.00771
-1.00906
-1.00916
-1.02851
-0.937656
-0.937049
-0.938896
-1.14125
-0.981017
-1.13018
-0.975264
-1.11359
-1.16423
-0.943655
-0.976854
-0.991855
-0.739644
-0.982177
-0.981133
-0.983082
-0.98832
-1.13798
-0.988167
-0.973501
-1.03367
-1.00294
-0.985184
-0.973404
-1.1662
-1.00257
-0.862855
-1.03315
-0.912697
-1.03475
-0.973299
-1.00202
-0.983906
-0.983996
-0.988765
-1.1368
-0.984107
-1.13516
-0.978589
-0.989001
-1.13651
-0.984122
-1.13403
-0.978873
-0.989065
-1.13682
-0.972806
-1.17083
-0.99908
-0.857032
-1.01093
-0.914593
-1.18226
-0.971059
-0.985119
-0.990054
-0.976734
-0.951945
-0.893478
-0.938473
-0.921275
-0.979204
-0.98864
-1.13659
-0.981218
-0.988347
-0.976938
-0.961257
-0.940138
-0.975765
-0.981212
-0.983125
-1.13531
-1.13346
-0.980583
-0.979823
-0.9836
-0.991395
-0.980818
-0.967694
-0.940202
-0.975289
-0.980169
-0.981553
-1.13259
-0.995987
-0.9961
-0.996226
-0.918603
-0.91952
-0.921496
-0.883534
-0.911058
-0.918643
-0.91852
-0.919076
-0.995933
-0.985147
-0.984389
-0.980684
-0.933394
-0.726831
-0.813351
-0.919384
-0.976944
-0.991354
-0.986445
-0.979606
-0.976519
-0.975599
-0.976704
-0.979962
-0.987178
-0.985804
-0.974901
-0.977504
-0.977534
-0.943764
-1.15
-0.939919
-0.99469
-0.983126
-0.99361
-0.989883
-0.944108
-1.13193
-1.1341
-0.93789
-1.02434
-1.00391
-0.96037
-1.02322
-1.03972
-0.891536
-0.94535
-1.3917
-1.23298
-0.763527
-0.888347
-1.04293
-1.0282
-1.00806
-1.02703
-1.02773
-1.00914
-1.02894
-0.938134
-0.938147
-0.938302
-0.938036
-1.02788
-0.948511
-1.13387
-0.935395
-1.13239
-1.13632
-0.93647
-1.12912
-1.13175
-1.13406
-1.13621
-0.937254
-1.12733
-1.13713
-1.13331
-0.945982
-1.14008
-1.15494
-0.914822
-0.762186
-0.990802
-0.982779
-0.983959
-0.988705
-0.990164
-0.957573
-0.951819
-0.893515
-0.975419
-0.938508
-0.920939
-0.980153
-0.990189
-0.978268
-0.975994
-0.986074
-0.987134
-1.13473
-1.134
-1.13504
-1.13411
-0.937343
-1.13496
-1.133
-0.948651
-1.13496
-0.938757
-1.1327
-1.13083
-0.945786
-1.13847
-1.14328
-1.14054
-0.943838
-1.03985
-1.02461
-1.00222
-1.00469
-1.00269
-1.00359
-0.934229
-0.927237
-1.12244
-0.799124
-0.733995
-1.15935
-1.06639
-1.06724
-0.977698
-1.04083
-1.04847
-1.06591
-0.777757
-1.14952
-0.958607
-1.15167
-1.15769
-1.15185
-1.15122
-1.12157
-0.892406
-1.04573
-1.3329
-0.754541
-0.985553
-1.11746
-1.03908
-1.10295
-1.02659
-0.993032
-1.29399
-1.08723
-0.80548
-0.871914
-1.44472
-0.864366
-1.15531
-0.802535
-1.15784
-0.960121
-1.00703
-1.00329
-1.02252
-1.02275
-1.03823
-1.02352
-1.02744
-1.02352
-1.00403
-1.00791
-1.02809
-1.02887
-1.04319
-0.938037
-0.937881
-0.93735
-1.02388
-0.939
-0.884763
-0.78453
-1.20928
-0.774725
-0.991513
-1.10951
-0.940628
-0.985635
-0.988896
-1.12136
-0.795634
-0.73056
-1.1613
-0.98157
-0.96018
-1.15115
-0.773729
-1.15152
-1.06636
-1.06658
-1.06916
-0.946388
-1.04538
-1.33207
-0.985407
-1.03936
-1.04482
-1.04615
-1.04996
-1.06627
-0.782542
-1.1515
-1.08346
-1.04671
-1.08169
-1.06692
-0.778727
-1.15355
-0.961711
-1.15787
-1.15722
-1.02816
-0.938897
-0.939464
-1.02843
-1.02377
-0.89118
-0.941282
-0.939762
-0.983262
-1.0234
-1.0276
-1.02962
-0.945308
-1.19873
-0.96507
-0.973013
-0.985906
-0.983537
-0.982815
-0.983737
-0.986543
-0.99044
-1.13578
-1.13398
-0.946392
-0.888018
-1.04327
-0.946727
-1.13464
-1.13626
-0.937011
-1.13578
-1.13393
-1.1335
-0.949524
-1.1343
-0.987208
-0.975771
-0.978998
-0.985979
-0.986134
-0.9839
-0.987094
-0.974496
-0.975276
-0.978261
-0.983865
-1.14088
-1.1373
-1.14134
-0.984086
-0.986095
-0.987179
-0.949468
-0.990668
-1.13664
-1.13535
-0.946628
-0.887891
-0.887709
-1.0428
-0.946158
-1.13664
-1.13791
-0.990132
-0.973517
-0.973681
-0.973827
-0.973974
-0.974523
-0.97085
-0.936722
-0.992033
-1.00329
-1.00478
-1.00384
-0.990777
-1.00414
-1.00368
-1.00417
-0.989368
-0.981863
-0.928633
-0.978363
-0.985179
-0.985068
-0.973767
-0.959891
-0.939542
-0.97764
-0.974171
-0.959812
-0.942903
-0.973435
-0.972043
-0.938555
-0.967805
-0.888135
-0.945257
-1.13351
-0.942207
-1.00051
-0.980028
-1.15518
-1.08426
-1.08711
-1.11721
-1.02627
-1.10258
-1.10388
-1.1024
-1.08456
-1.04404
-1.09946
-1.29266
-1.10264
-1.10494
-1.18417
-1.15461
-1.29923
-1.30044
-1.28023
-1.29647
-1.2944
-0.95477
-0.958561
-1.00337
-1.16284
-0.819409
-0.954703
-0.985668
-0.949464
-0.925468
-1.13784
-0.937727
-1.13436
-0.908578
-0.887677
-0.912939
-0.885727
-0.895783
-0.900223
-1.16618
-1.13247
-1.13644
-0.984177
-1.2945
-1.13725
-0.995683
-0.761438
-0.913037
-0.734891
-1.15365
-0.764108
-0.763567
-0.762078
-0.902039
-0.864826
-0.934965
-0.900073
-0.959461
-0.951319
-0.754667
-0.931146
-1.15181
-0.79109
-1.06448
-0.751479
-1.11477
-0.933794
-0.955932
-0.879966
-0.850968
-0.742286
-0.931108
-0.93227
-0.936772
-0.788199
-0.938179
-1.136
-0.934363
0.99255
0.980862
0.991752
0.985028
0.978793
0.976141
0.975492
0.976667
0.979849
0.986693
0.973257
0.968051
0.720766
1.01661
1.15227
0.905527
1.00641
0.955568
1.19688
0.895769
1.14896
1.01087
0.848151
1.03621
1.02792
0.863503
1.03547
1.03191
0.864855
1.03516
1.03277
0.860946
1.03555
1.03212
0.862492
1.03276
1.03441
0.861577
1.02759
1.03873
0.851479
1.01252
1.01977
0.830538
0.949628
0.692944
1.25181
0.771973
0.900538
1.01424
0.751238
0.963153
0.991345
0.748343
0.983899
0.982044
0.753916
0.994871
0.953579
0.747449
0.984631
1.18257
0.820082
1.09907
1.03573
0.954085
0.958844
1.13651
0.949943
0.954748
0.954644
1.1459
0.956529
0.953145
0.937804
1.14729
0.974598
0.954314
0.904954
1.14966
1.0064
0.959999
0.866641
0.8333
0.731734
0.909079
1.07138
1.11351
1.12347
1.12988
1.12768
1.12936
1.12945
1.12873
1.13075
1.12997
1.13061
1.13009
1.13087
1.12829
1.12898
1.12075
1.10385
1.0491
0.861294
0.977501
0.997254
1.02824
0.956351
0.720957
1.2905
0.997867
1.05672
0.993895
1.03176
1.15464
1.18278
1.10057
1.04946
1.0537
1.05003
1.10046
1.29071
1.05666
0.846387
0.857322
0.957218
0.86982
0.846845
1.01039
1.3011
1.03162
1.37544
0.993723
1.15458
0.977324
0.997325
1.05086
1.22769
1.20225
0.903715
1.16987
0.890769
1.12192
1.02882
0.72034
0.955421
0.987955
1.15409
1.11519
1.14071
1.13088
1.13613
1.13335
1.13539
1.13333
1.13647
1.13171
1.13879
1.12913
1.14008
1.127
1.12474
0.972556
1.41085
0.988429
0.969163
1.11255
1.13378
0.94899
1.13545
1.13274
0.951908
1.13735
1.13295
0.951355
1.13764
1.13239
0.950461
1.13768
1.13175
0.949183
1.13724
1.13049
0.946101
1.14023
1.11235
0.932437
1.16413
0.942644
1.14958
0.984958
0.709749
0.991562
0.94712
1.15206
0.961449
0.719506
1.0205
0.905263
1.1733
1.11206
1.14192
1.13784
1.13405
1.14458
1.12898
1.14773
1.13333
1.13245
1.13894
1.12982
1.14171
1.11995
1.1339
0.979425
1.41549
1.01708
0.960734
1.07369
1.23156
0.917392
1.21491
1.21185
0.918324
1.21341
1.21194
0.917924
1.22885
1.10493
0.948542
1.15962
1.12024
0.947449
1.14681
1.12827
0.944367
1.14386
1.12007
0.928302
1.14886
1.0087
1.15224
0.900359
0.732795
1.22686
0.852111
1.19511
1.15254
0.896307
1.0131
0.934623
0.814266
0.677438
0.863445
0.727372
1.0505
1.10779
0.760936
1.20347
1.11368
0.902843
1.22703
1.17066
0.890354
1.1217
1.05211
0.787152
0.944834
1.37617
0.993565
1.15454
1.03182
1.30119
1.01076
0.847216
0.95746
0.869818
0.805527
1.15993
0.857281
0.868078
0.800831
0.798013
1.15687
0.862928
0.862392
0.797217
0.800998
1.1568
0.868602
0.856891
0.804154
0.87014
1.15966
0.957228
0.8466
1.03198
1.0104
1.30167
1.03189
1.15456
0.99279
1.05703
1.28813
1.0013
1.02711
1.27643
1.02641
1.00205
1.28773
1.05664
0.846705
1.09637
1.18207
1.10053
1.43895
1.028
0.951561
0.989265
0.944992
1.16518
1.113
1.11284
1.11611
0.932297
1.16565
1.15339
0.990165
1.15013
0.94368
0.95579
1.03014
1.45194
1.10427
1.10058
1.43855
1.02799
0.951496
0.889031
1.05238
1.22731
1.20282
0.760868
1.10475
0.787654
1.04875
0.72772
0.996166
1.12179
1.03239
0.951041
0.988944
0.987875
1.15004
0.951978
1.03137
0.996474
0.976419
0.867364
0.892621
0.843677
0.813693
0.979352
0.918346
0.971125
0.978982
0.993632
1.00047
0.857536
1.00654
1.03651
1.16325
1.1745
1.15304
1.19132
0.907567
1.05168
1.0292
0.910525
0.762401
1.12739
1.13955
0.759499
1.21197
1.13668
0.9158
1.21142
1.13438
1.13541
0.914823
1.21382
0.788806
0.88863
0.890989
0.943652
0.790743
1.12915
0.893206
1.11625
0.922931
0.923976
0.894833
0.860243
1.006
0.974444
0.965046
0.980186
0.978061
0.969981
0.936326
0.942342
0.977443
0.956175
1.15418
1.1654
1.11211
0.932836
1.11456
0.943518
1.14082
1.14109
1.13242
0.946649
1.12895
0.939353
1.13961
1.13543
1.13585
0.949957
1.12848
0.937416
1.14119
1.13439
1.13584
0.951354
1.13003
0.934624
1.13914
1.13618
1.13287
0.951621
1.13214
0.930756
1.13695
1.13862
1.12921
0.951538
1.13174
0.928932
1.13459
1.14013
1.12675
0.948709
1.13369
0.926472
1.1114
1.12245
0.982252
0.969322
0.987169
0.801765
0.834599
0.804967
0.835502
0.908005
1.4147
0.965454
0.885998
1.15777
0.886243
1.08962
0.767251
1.10467
1.13583
0.759424
1.12976
1.13803
0.767376
1.08278
1.28957
0.986906
1.13028
0.903948
0.907749
0.888292
0.941754
1.10858
1.05879