/*--------------------------------*- C++ -*----------------------------------*\
| =========                 |                                                 |
| \\      /  F ield         | OpenFOAM: The Open Source CFD Toolbox           |
|  \\    /   O peration     | Version:  2306                                  |
|   \\  /    A nd           | Website:  www.openfoam.com                      |
|    \\/     M anipulation  |                                                 |
\*---------------------------------------------------------------------------*/
FoamFile
{
    version     2.0;
    format      ascii;
    arch        "LSB;label=32;scalar=64";
    class       volScalarField;
    location    "2.1";
    object      gradTz;
}
// * * * * * * * * * * * * * * * * * * * * * * * * * * * * * * * * * * * * * //

dimensions      [0 -1 0 1 0 0 0];

internalField   nonuniform List<scalar> 
5322
(
-0.0616833
-0.0563924
-0.0475732
-0.0514332
-0.0392605
-0.0289026
-0.0204993
-0.0140484
-0.00940347
-0.00636094
-0.00461075
-0.00404177
-0.00286879
-0.00405706
-0.00451086
-0.00381798
-0.00447124
-0.00354893
-0.00538105
-0.00630682
-0.00785116
-0.00942389
-0.0118574
-0.0143596
-0.0178569
-0.0211166
-0.0257957
-0.030301
-0.036235
-0.0414216
-0.0484883
-0.0548214
-0.0623734
-0.0677605
-0.0715906
-0.0630648
-0.0745809
-0.0735689
-0.0758081
-0.055607
-0.0702523
-0.072521
-0.0545164
-0.0725493
-0.071818
-0.0554866
-0.0736124
-0.0695918
-0.0549188
-0.0724848
-0.0828818
-0.0560705
-0.0784376
-0.069272
-0.0616522
-0.0655489
-0.0813671
-0.0642805
-0.0617475
-0.0653735
-0.082211
-0.0651424
-0.0617316
-0.0637768
-0.0822185
-0.0674832
-0.0615291
-0.0606713
-0.0806816
-0.0720712
-0.051255
-0.075567
-0.071913
-0.07084
-0.0715104
-0.0711673
-0.0711176
-0.0709405
-0.0720868
-0.0688399
-0.0669918
-0.0542908
-0.0563096
-0.0721699
-0.0464984
-0.0639268
-0.0935336
-0.060956
-0.0610517
-0.052868
-0.065248
-0.0462128
-0.0486781
-0.0485935
-0.0627924
-0.0604658
-0.0571933
-0.0612655
-0.0950916
-0.0591603
-0.0598761
-0.0536076
-0.0617554
-0.0621199
-0.0678349
-0.0556464
-0.0584648
-0.0519222
-0.0397285
-0.029328
-0.0208025
-0.0142196
-0.00945591
-0.00633711
-0.00524074
-0.00461393
-0.00331407
-0.00353932
-0.00505406
-0.00386911
-0.00335118
-0.00396887
-0.00391295
-0.00544983
-0.00409171
-0.00534214
-0.00387668
-0.00404839
-0.00525656
-0.00386962
-0.00397053
-0.00530822
-0.00393099
-0.00389888
-0.00533088
-0.00398119
-0.00391811
-0.00547004
-0.00410329
-0.00535425
-0.00389325
-0.00336618
-0.0038751
-0.00349354
-0.00332255
-0.00506033
-0.00354383
-0.00352498
-0.00328553
-0.00331137
-0.00508155
-0.0035303
-0.00351753
-0.00329254
-0.0033109
-0.00507723
-0.00353153
-0.00348902
-0.00336036
-0.00451519
-0.0038163
-0.00448221
-0.00596438
-0.00681384
-0.00393903
-0.00539214
-0.0035543
-0.00454633
-0.00293926
-0.00392665
-0.00406635
-0.00378853
-0.00421224
-0.00463943
-0.00403106
-0.00565689
-0.0056093
-0.00637286
-0.00486791
-0.0063684
-0.00792384
-0.00792962
-0.00958452
-0.00722483
-0.00960214
-0.0119114
-0.0119178
-0.0144981
-0.0109697
-0.0145203
-0.0178254
-0.0178348
-0.0214204
-0.0163551
-0.0214605
-0.0259109
-0.0259396
-0.030553
-0.0235901
-0.0306303
-0.0363375
-0.0364102
-0.0419345
-0.032757
-0.0420659
-0.0489626
-0.0491141
-0.0553347
-0.0435526
-0.0555576
-0.0623601
-0.0625165
-0.0611568
-0.0950943
-0.0591436
-0.0589603
-0.0537763
-0.0736113
-0.0734405
-0.0486816
-0.0486525
-0.0626649
-0.0609661
-0.0566751
-0.061976
-0.0949966
-0.0595258
-0.0588981
-0.0539067
-0.0609056
-0.0624238
-0.0571523
-0.0571702
-0.0518263
-0.0397437
-0.0293674
-0.0208321
-0.0142372
-0.00946535
-0.00634186
-0.0052443
-0.00461873
-0.00330776
-0.00330318
-0.00330087
-0.00330515
-0.0050768
-0.00351681
-0.00353112
-0.00345253
-0.00397181
-0.00580072
-0.00351742
-0.00507886
-0.00353317
-0.00576518
-0.00404331
-0.00524728
-0.00387119
-0.00345471
-0.00397271
-0.00524835
-0.00283391
-0.00391066
-0.00403351
-0.00402912
-0.00421461
-0.00560894
-0.00637566
-0.00793173
-0.00958726
-0.0119242
-0.0144998
-0.0178466
-0.0214227
-0.0259602
-0.0305545
-0.0364493
-0.0419241
-0.0491914
-0.0552767
-0.0629527
-0.0604208
-0.0951346
-0.0615338
-0.0571842
-0.0622249
-0.0557117
-0.0435861
-0.0489629
-0.0421355
-0.0327822
-0.0363675
-0.0306576
-0.0236057
-0.0259377
-0.0214704
-0.0163638
-0.0178442
-0.014523
-0.0109743
-0.0119264
-0.00959996
-0.00722713
-0.00793737
-0.0063633
-0.00486794
-0.00566561
-0.00432552
-0.00566193
-0.00636794
-0.00486905
-0.00561384
-0.004216
-0.0046423
-0.00378432
-0.00286621
-0.00408125
-0.00382596
-0.0056748
-0.00636976
-0.00792138
-0.00961916
-0.0119346
-0.0145361
-0.0178987
-0.0214759
-0.0260678
-0.0306373
-0.0366917
-0.0419258
-0.0497315
-0.0548359
-0.0633141
-0.060826
-0.0940651
-0.0646463
-0.0554361
-0.0679215
-0.060279
-0.0423647
-0.0531687
-0.0452849
-0.0318274
-0.0392741
-0.0327738
-0.0228651
-0.0279073
-0.0228931
-0.0158319
-0.0191746
-0.0154711
-0.0106119
-0.0127882
-0.0102171
-0.00698732
-0.00848174
-0.00681556
-0.00470234
-0.00596382
-0.0044853
-0.0045203
-0.00393144
-0.00406697
-0.00362793
-0.0045577
-0.00293437
-0.00335429
-0.00402057
-0.00373717
-0.00577934
-0.00660256
-0.00638353
-0.00636593
-0.00484203
-0.00560191
-0.00569915
-0.00388807
-0.00464616
-0.00429879
-0.00433788
-0.00423757
-0.00556553
-0.00432341
-0.00410681
-0.00574995
-0.00461027
-0.00433171
-0.00417209
-0.00405735
-0.00566686
-0.00636569
-0.00590946
-0.00794281
-0.00960128
-0.0119319
-0.0145227
-0.0132537
-0.017859
-0.021456
-0.0259797
-0.0305986
-0.0274471
-0.0364679
-0.0419696
-0.0491512
-0.0553838
-0.0486672
-0.0486934
-0.0373691
-0.0374095
-0.027608
-0.0275304
-0.0366569
-0.0420158
-0.0327926
-0.0424607
-0.0488718
-0.0495315
-0.055124
-0.0435447
-0.0563805
-0.0616849
-0.0695881
-0.0592923
-0.09541
-0.0609089
-0.0577823
-0.0556668
-0.0718146
-0.046187
-0.0419432
-0.057984
-0.0359567
-0.0489565
-0.0428599
-0.0265478
-0.0364902
-0.0306471
-0.0189678
-0.0260886
-0.021373
-0.0131274
-0.0178578
-0.0143131
-0.00879022
-0.0119209
-0.00941722
-0.00579015
-0.00782716
-0.00626022
-0.00392792
-0.00540151
-0.00383363
-0.00368432
-0.00496283
-0.00464702
-0.00562804
-0.00717823
-0.00804265
-0.00990318
-0.0121866
-0.0149487
-0.0145041
-0.0145563
-0.0109487
-0.0119553
-0.0119478
-0.00962628
-0.00720759
-0.00957315
-0.00881138
-0.00841763
-0.00562073
-0.00492993
-0.00587886
-0.00554744
-0.00530415
-0.00626561
-0.00633054
-0.00460269
-0.0040575
-0.00297686
-0.00495611
-0.00278329
-0.00395786
-0.00452494
-0.00516695
-0.00752319
-0.00941534
-0.00937598
-0.0140633
-0.0142451
-0.0113723
-0.0109037
-0.0105522
-0.0131096
-0.0162813
-0.0183642
-0.0220714
-0.0268057
-0.0314999
-0.0307435
-0.0306766
-0.0235894
-0.0260278
-0.0260653
-0.0215068
-0.0163378
-0.0214812
-0.0194831
-0.0185506
-0.012662
-0.0111763
-0.0131852
-0.0128998
-0.0123213
-0.0087585
-0.00833161
-0.00797646
-0.00859934
-0.00693262
-0.00740664
-0.00770718
-0.00638732
-0.00463503
-0.00405366
-0.00393789
-0.00371914
-0.00421318
-0.00354422
-0.00525868
-0.00522622
-0.00637563
-0.00589187
-0.00793551
-0.00793497
-0.00960294
-0.00723014
-0.00959208
-0.00879838
-0.0119275
-0.0119304
-0.0145201
-0.0109815
-0.0145205
-0.0132318
-0.0178497
-0.0178665
-0.0214513
-0.0163791
-0.0214756
-0.019395
-0.0259584
-0.0260002
-0.0305932
-0.023634
-0.0306719
-0.0274313
-0.036403
-0.0365242
-0.0419419
-0.0328223
-0.0421716
-0.0373194
-0.0489571
-0.0492947
-0.0552638
-0.0435951
-0.0557236
-0.048536
-0.0622235
-0.0628062
-0.0610894
-0.057084
-0.061118
-0.0542034
-0.059292
-0.0571609
-0.0518091
-0.0711551
-0.0471416
-0.0611074
-0.0465902
-0.0445871
-0.0544136
-0.0544974
-0.048893
-0.0522914
-0.0527359
-0.0466631
-0.040933
-0.0401163
-0.0292717
-0.0298688
-0.0245776
-0.020973
-0.0206225
-0.0204703
-0.0139967
-0.00936498
-0.00634027
-0.00459371
-0.00402079
-0.00288116
-0.00404033
-0.00357253
-0.00395914
-0.00398599
-0.00381622
-0.00394241
-0.00465331
-0.00344698
-0.00423389
-0.0040805
-0.00410739
-0.00426833
-0.0033585
-0.00422003
-0.00411761
-0.00411647
-0.00465572
-0.00324425
-0.0032716
-0.00326638
-0.00325154
-0.00324201
-0.00322207
-0.00512575
-0.00326161
-0.00324887
-0.00324968
-0.00512771
-0.00326655
-0.00469107
-0.00529827
-0.00526903
-0.00461495
-0.00459959
-0.00430516
-0.00592382
-0.00886884
-0.0133381
-0.0195225
-0.0275452
-0.0262061
-0.0233074
-0.027425
-0.0268639
-0.0256573
-0.0280441
-0.0333452
-0.038021
-0.0428374
-0.0526604
-0.0435169
-0.0442355
-0.0346642
-0.0393567
-0.0320834
-0.0344987
-0.0350439
-0.0289618
-0.0394956
-0.05186
-0.0665348
-0.0662998
-0.0665624
-0.0568552
-0.0524785
-0.0552758
-0.0612173
-0.0517392
-0.0590232
-0.0851096
-0.0768166
-0.0750704
-0.0776056
-0.0494814
-0.0629695
-0.066056
-0.0793318
-0.0509007
-0.065138
-0.0663327
-0.07971
-0.05112
-0.0643278
-0.0671804
-0.0795535
-0.0523502
-0.0637974
-0.0716141
-0.0992993
-0.0789155
-0.0771876
-0.0978504
-0.0959423
-0.0762377
-0.0557987
-0.0784469
-0.0693294
-0.0616249
-0.0654172
-0.0697368
-0.0549498
-0.0723672
-0.0829246
-0.0560576
-0.0670361
-0.0543218
-0.056358
-0.0721935
-0.061649
-0.0463837
-0.0566692
-0.0485172
-0.0360523
-0.0421889
-0.036211
-0.0264372
-0.030451
-0.0258952
-0.018702
-0.0212478
-0.0178369
-0.0127414
-0.0143549
-0.0119028
-0.00846346
-0.00946387
-0.00786207
-0.00551678
-0.00632734
-0.00539249
-0.00386855
-0.00455011
-0.00360629
-0.00405564
-0.00392232
-0.00448159
-0.00596902
-0.00681605
-0.00470152
-0.00568268
-0.00381677
-0.00451786
-0.00407553
-0.00286429
-0.00377773
-0.00391213
-0.00464161
-0.00397269
-0.00405586
-0.00464014
-0.0063899
-0.00943488
-0.0094415
-0.0141328
-0.0206867
-0.0193478
-0.0186028
-0.0178231
-0.0196192
-0.0238723
-0.0228396
-0.015777
-0.0169692
-0.0172493
-0.0178946
-0.0179009
-0.0132842
-0.0145267
-0.0178357
-0.0163792
-0.0214768
-0.0259325
-0.023629
-0.0306612
-0.0363653
-0.0328013
-0.0421043
-0.0489532
-0.0435578
-0.0554848
-0.0465883
-0.0472662
-0.0591366
-0.0592613
-0.0520744
-0.0394794
-0.0289446
-0.0204708
-0.0140083
-0.00937903
-0.00635101
-0.00461128
-0.00403868
-0.0028654
-0.00391078
-0.00396746
-0.00404127
-0.00461667
-0.00636503
-0.00940826
-0.0140679
-0.0205649
-0.0290754
-0.0396561
-0.0522006
-0.0676312
-0.0671634
-0.0551159
-0.104951
-0.0772129
-0.0740512
-0.066386
-0.0796833
-0.0511868
-0.0513252
-0.0557127
-0.0822556
-0.0530193
-0.0538313
-0.0548826
-0.0827121
-0.0532621
-0.0540687
-0.0545239
-0.0825591
-0.0547339
-0.0556899
-0.0613142
-0.104959
-0.0798865
-0.077936
-0.0782835
-0.0776091
-0.0621538
-0.0580586
-0.0615756
-0.104573
-0.0608815
-0.0631616
-0.0821573
-0.0652313
-0.061689
-0.0636681
-0.0729264
-0.0544801
-0.0721474
-0.0721877
-0.0556125
-0.0733385
-0.0644557
-0.0617162
-0.0651377
-0.0712265
-0.0709867
-0.0716062
-0.07067
-0.0617546
-0.061422
-0.0668758
-0.0823083
-0.0707242
-0.0561319
-0.0752945
-0.0662037
-0.0561149
-0.0907975
-0.0489499
-0.063807
-0.0532998
-0.0618944
-0.0562375
-0.0440332
-0.0504389
-0.0440862
-0.0346258
-0.0379679
-0.0330907
-0.024952
-0.0278361
-0.0234914
-0.0180798
-0.0193464
-0.0163193
-0.0120051
-0.0131873
-0.010805
-0.00814626
-0.00860908
-0.00719747
-0.00525129
-0.00569986
-0.00492156
-0.00369352
-0.00401942
-0.00276664
-0.00492498
-0.0035663
-0.00297108
-0.00545158
-0.00391027
-0.00408796
-0.00533014
-0.00387798
-0.00403672
-0.00524444
-0.00386
-0.00397101
-0.0053002
-0.00393531
-0.00388294
-0.00531897
-0.00288538
-0.00380744
-0.00464977
-0.00404146
-0.00432325
-0.00564792
-0.00486273
-0.00636354
-0.00636115
-0.00588366
-0.0079086
-0.00697468
-0.00959451
-0.0101995
-0.00740179
-0.0127651
-0.0087691
-0.0154176
-0.0111407
-0.0190803
-0.0130503
-0.0227974
-0.0163254
-0.0276987
-0.018812
-0.0325318
-0.0230713
-0.038703
-0.0260867
-0.0447402
-0.0313956
-0.0520495
-0.0348513
-0.0592538
-0.0411111
-0.06662
-0.0445817
-0.0524611
-0.0633887
-0.0619311
-0.0489291
-0.0567879
-0.0416383
-0.0499211
-0.0484584
-0.0373049
-0.043043
-0.0312506
-0.0370769
-0.0361044
-0.0274191
-0.0313342
-0.0225549
-0.0265346
-0.0258438
-0.019397
-0.0219928
-0.0156499
-0.0182526
-0.0178217
-0.0132443
-0.0148776
-0.0105164
-0.0121983
-0.0119261
-0.00880597
-0.0098661
-0.00692254
-0.00806713
-0.00793515
-0.00589737
-0.00656088
-0.00464988
-0.00580143
-0.00559181
-0.00433219
-0.00371515
-0.00334337
-0.00293083
-0.00392194
-0.00405453
-0.00360122
-0.00454231
-0.00384913
-0.0041967
-0.00372252
-0.00393924
-0.00396914
-0.00389559
-0.00463613
-0.00402862
-0.00419989
-0.00429782
-0.00566426
-0.00469685
-0.00680358
-0.00493215
-0.00847088
-0.00578446
-0.00771294
-0.0052667
-0.00523473
-0.00560999
-0.00459247
-0.0057502
-0.00352678
-0.00507258
-0.00351532
-0.00344376
-0.00422314
-0.00410778
-0.00407339
-0.00411356
-0.00411876
-0.00579931
-0.00461361
-0.0043258
-0.00593896
-0.00594156
-0.00592304
-0.00795027
-0.00794971
-0.00589827
-0.00768114
-0.00526656
-0.00524782
-0.00561622
-0.00487379
-0.00638406
-0.00792603
-0.00723287
-0.00960371
-0.0119178
-0.0109833
-0.0119604
-0.00889188
-0.00883924
-0.0133705
-0.0195679
-0.0194657
-0.0195505
-0.0133629
-0.0088881
-0.00882162
-0.00886093
-0.00592008
-0.0058884
-0.00635591
-0.00791995
-0.00847795
-0.0102089
-0.0127718
-0.0154299
-0.00877947
-0.0119069
-0.0074058
-0.00945781
-0.00579507
-0.0078653
-0.00493793
-0.00632332
-0.00550596
-0.00527329
-0.00719342
-0.00693575
-0.00864619
-0.00986765
-0.00881564
-0.0119303
-0.0109164
-0.0144715
-0.0145179
-0.0132596
-0.0177751
-0.0163098
-0.0213956
-0.021404
-0.0193637
-0.0257758
-0.0234586
-0.0304955
-0.0305108
-0.0273061
-0.0361206
-0.0314355
-0.0418653
-0.0485271
-0.0418355
-0.0553797
-0.0614235
-0.0528065
-0.058709
-0.0520519
-0.0397525
-0.0293225
-0.0207943
-0.0142137
-0.00945184
-0.00633459
-0.00523816
-0.0046103
-0.00330569
-0.00328764
-0.00330514
-0.00352508
-0.00578943
-0.00460994
-0.00460655
-0.0057374
-0.00352181
-0.00344023
-0.00423288
-0.00409998
-0.00431749
-0.0040999
-0.00575882
-0.00459544
-0.00430109
-0.00567484
-0.00470336
-0.0052486
-0.00518206
-0.00526989
-0.00465458
-0.00325092
-0.00324115
-0.0051274
-0.00322162
-0.0032802
-0.00507597
-0.00518332
-0.00593511
-0.00561835
-0.00423306
-0.00555087
-0.00582065
-0.00434025
-0.00559026
-0.00483757
-0.00638903
-0.00635007
-0.00591972
-0.00791773
-0.0072216
-0.00958478
-0.0088146
-0.0118949
-0.0109479
-0.0144915
-0.0144789
-0.0132028
-0.0178056
-0.015755
-0.021396
-0.0258402
-0.022685
-0.0305034
-0.0274621
-0.0194686
-0.0133096
-0.00885421
-0.00591562
-0.00517762
-0.00526641
-0.00465073
-0.00511365
-0.00637115
-0.00518859
-0.00525287
-0.00518207
-0.00511528
-0.00636969
-0.00593596
-0.00590942
-0.00888494
-0.00882044
-0.0133592
-0.0132538
-0.0140962
-0.0206055
-0.0291429
-0.0292856
-0.0399719
-0.0373547
-0.0363394
-0.0483577
-0.0597995
-0.0513892
-0.0736824
-0.0563201
-0.107493
-0.0757761
-0.0743703
-0.0699553
-0.0859732
-0.0783202
-0.0810327
-0.0779237
-0.106834
-0.0748126
-0.0739484
-0.0663238
-0.079331
-0.0510453
-0.0520786
-0.0563207
-0.0818096
-0.0527927
-0.0547345
-0.055686
-0.0822591
-0.0530367
-0.0548124
-0.0554829
-0.0820992
-0.0546189
-0.0560793
-0.0772707
-0.0584746
-0.0486896
-0.0486136
-0.0556187
-0.0592882
-0.0422014
-0.0528437
-0.0353671
-0.0423187
-0.0509446
-0.0373274
-0.0481675
-0.0559868
-0.0488941
-0.0609423
-0.0661919
-0.0555983
-0.0520821
-0.0443446
-0.0545791
-0.0532122
-0.0688272
-0.0721591
-0.0708286
-0.0616699
-0.0487262
-0.0610589
-0.0542873
-0.0613441
-0.0486601
-0.0610505
-0.0543395
-0.0614192
-0.0488094
-0.0611276
-0.0720937
-0.0705022
-0.0618625
-0.0575715
-0.0690552
-0.0826887
-0.0620364
-0.0786796
-0.0798749
-0.0767089
-0.063133
-0.0608813
-0.0613034
-0.104028
-0.0615524
-0.0683321
-0.100518
-0.0806021
-0.0772286
-0.0620577
-0.0607945
-0.0774822
-0.0557067
-0.0555033
-0.0767539
-0.0574379
-0.0521087
-0.0519309
-0.0397372
-0.0293354
-0.0208075
-0.0142229
-0.00945773
-0.00633815
-0.0052414
-0.00461454
-0.00322195
-0.00324348
-0.00422057
-0.00407377
-0.00410229
-0.00524173
-0.00404015
-0.00336078
-0.00349036
-0.00386899
-0.00354037
-0.00335298
-0.00391376
-0.00545981
-0.00409382
-0.00555136
-0.00388236
-0.00533589
-0.00431891
-0.00426764
-0.004101
-0.00573981
-0.00352273
-0.00352676
-0.00507743
-0.00329786
-0.00329597
-0.00352783
-0.00351943
-0.00343675
-0.00393845
-0.0053672
-0.00394176
-0.00578827
-0.00460964
-0.0046063
-0.00423439
-0.00355831
-0.00421558
-0.00371818
-0.00394854
-0.00405241
-0.00463436
-0.00639364
-0.00944985
-0.0141283
-0.0206514
-0.0291958
-0.0398133
-0.0397602
-0.0524214
-0.0525201
-0.0670906
-0.0555916
-0.0587116
-0.0590153
-0.0951892
-0.0681585
-0.0748014
-0.0771547
-0.104669
-0.0549183
-0.0589296
-0.0590872
-0.0559724
-0.0598776
-0.060909
-0.0935477
-0.0619274
-0.0639281
-0.052897
-0.0610558
-0.0711646
-0.0584794
-0.0482499
-0.0523776
-0.0677364
-0.0675271
-0.0590178
-0.0593119
-0.047866
-0.0353319
-0.0251298
-0.0173394
-0.0116333
-0.0114757
-0.00761394
-0.00761558
-0.00522933
-0.00527206
-0.00589959
-0.00878651
-0.0131799
-0.0192822
-0.0272528
-0.0370751
-0.0470672
-0.0463902
-0.0465413
-0.0345954
-0.0247368
-0.0170937
-0.0170738
-0.0114709
-0.0116203
-0.00771469
-0.00793048
-0.00848457
-0.0102123
-0.0127815
-0.0154351
-0.0105926
-0.0119299
-0.00960476
-0.00698119
-0.00798548
-0.00592069
-0.00589228
-0.0063566
-0.00459775
-0.00575751
-0.0038693
-0.0043049
-0.00518037
-0.00524969
-0.00505477
-0.00331511
-0.00328641
-0.00423749
-0.00410511
-0.00414218
-0.00422021
-0.00322166
-0.00512962
-0.00422031
-0.00422374
-0.00344981
-0.00426713
-0.00422083
-0.0040678
-0.00409487
-0.00411004
-0.00431383
-0.00409669
-0.00411058
-0.00423714
-0.00426644
-0.0033086
-0.00353938
-0.0038637
-0.00504955
-0.00348841
-0.00335473
-0.00524527
-0.0051847
-0.00526787
-0.00465006
-0.00511398
-0.00518636
-0.00593729
-0.00562039
-0.00494286
-0.00841234
-0.00741319
-0.00886206
-0.00879773
-0.0133233
-0.0132222
-0.0145183
-0.0178557
-0.0191308
-0.0228081
-0.0278133
-0.0325561
-0.0227722
-0.0259486
-0.0214575
-0.0157869
-0.0180077
-0.0126403
-0.0111581
-0.0184911
-0.0163573
-0.0194944
-0.0193688
-0.0195467
-0.0194164
-0.0275717
-0.0274569
-0.0373705
-0.0373267
-0.0355595
-0.0319745
-0.037631
-0.0359445
-0.0259683
-0.0180445
-0.0121251
-0.0079924
-0.00788318
-0.00775754
-0.00950079
-0.0119482
-0.0117377
-0.0142877
-0.0177698
-0.0174453
-0.0142892
-0.0095021
-0.00789205
-0.00788098
-0.00775394
-0.00639817
-0.00953201
-0.0143314
-0.0209599
-0.020901
-0.0255486
-0.0250587
-0.0294564
-0.0353191
-0.0345995
-0.0398614
-0.0467484
-0.0476127
-0.0485792
-0.0732124
-0.0517602
-0.0772615
-0.0584041
-0.0571376
-0.0738109
-0.0544678
-0.0763882
-0.0785969
-0.0811563
-0.0776592
-0.106044
-0.0747665
-0.0683813
-0.0642556
-0.0817237
-0.0826154
-0.0609385
-0.0685592
-0.0791577
-0.0825614
-0.076395
-0.0747443
-0.105429
-0.0779956
-0.0814032
-0.0816338
-0.0818448
-0.0814511
-0.0776834
-0.0817909
-0.0729632
-0.0671834
-0.0795563
-0.0523783
-0.0510989
-0.0554932
-0.082121
-0.0545746
-0.0535862
-0.0545356
-0.0826033
-0.0546401
-0.0538306
-0.0541661
-0.0824126
-0.0558701
-0.0614398
-0.104349
-0.0821782
-0.0769093
-0.0633649
-0.0608069
-0.0767708
-0.0574084
-0.0520997
-0.0398654
-0.0294334
-0.0208816
-0.0142757
-0.00949405
-0.00636659
-0.00788244
-0.0079833
-0.00698354
-0.00960087
-0.011917
-0.0105961
-0.0145103
-0.0178386
-0.0191171
-0.0228006
-0.0277946
-0.0325462
-0.0188642
-0.0259065
-0.0163425
-0.0212477
-0.0130777
-0.0178447
-0.0111478
-0.0143517
-0.0127257
-0.0121729
-0.0162623
-0.0156794
-0.0194492
-0.021985
-0.019408
-0.0258395
-0.0234037
-0.0305502
-0.0305364
-0.0273936
-0.0359503
-0.0324778
-0.0418475
-0.0371707
-0.048275
-0.0431409
-0.0553575
-0.0554565
-0.0486748
-0.0614473
-0.0543328
-0.0612013
-0.0612868
-0.0486942
-0.0553498
-0.0553959
-0.0611248
-0.0542739
-0.0573139
-0.0487943
-0.0373143
-0.0275172
-0.019514
-0.0133431
-0.00887888
-0.00840853
-0.0126342
-0.0133212
-0.0132151
-0.0194906
-0.0193582
-0.0214436
-0.0259261
-0.0227789
-0.0306147
-0.0363635
-0.0390235
-0.0447674
-0.0528063
-0.0593007
-0.0353622
-0.0485472
-0.0315999
-0.0421977
-0.0262693
-0.0362286
-0.0231375
-0.0304562
-0.0264114
-0.0252465
-0.033011
-0.0314804
-0.0385041
-0.0427686
-0.0373285
-0.0481707
-0.0430416
-0.0559456
-0.0551727
-0.048731
-0.0616185
-0.0540301
-0.0609698
-0.0661609
-0.0489024
-0.0555847
-0.0520342
-0.0545393
-0.0531755
-0.0564633
-0.0520848
-0.0442957
-0.0463463
-0.0566772
-0.0616846
-0.0414034
-0.0481268
-0.0369635
-0.027166
-0.0192183
-0.0131339
-0.00875366
-0.00587665
-0.00420158
-0.00372006
-0.00405929
-0.00360578
-0.00277005
-0.00334936
-0.00402592
-0.00371648
-0.00493483
-0.00296832
-0.0035587
-0.00464236
-0.00429232
-0.00387647
-0.00433003
-0.00560755
-0.00486846
-0.00635289
-0.00590493
-0.00791538
-0.0072156
-0.00959115
-0.00957064
-0.00878687
-0.0119025
-0.0105805
-0.0144909
-0.0116079
-0.0114621
-0.0119043
-0.00762388
-0.0079278
-0.00634967
-0.00634367
-0.0045882
-0.00401986
-0.00396901
-0.00403711
-0.00405484
-0.00396555
-0.00452891
-0.00370657
-0.00492066
-0.00466036
-0.00656125
-0.005906
-0.00793708
-0.00719578
-0.00957112
-0.00960484
-0.00883239
-0.0118983
-0.0109552
-0.0144949
-0.0132346
-0.0177776
-0.0163011
-0.021393
-0.0213908
-0.0193288
-0.0257766
-0.0243704
-0.0169888
-0.0177816
-0.0139865
-0.0139741
-0.00936934
-0.00768271
-0.00795292
-0.00527565
-0.00570354
-0.00460611
-0.00518742
-0.00571918
-0.00628758
-0.00634533
-0.0075451
-0.00809103
-0.00943733
-0.00808416
-0.0108512
-0.0105258
-0.0148909
-0.0132521
-0.0178255
-0.0162556
-0.021389
-0.0214326
-0.0194013
-0.0257616
-0.0234687
-0.0305074
-0.0273424
-0.0359935
-0.0324753
-0.0418442
-0.0418967
-0.0371418
-0.0482696
-0.0372695
-0.0352569
-0.0254931
-0.0250414
-0.0208884
-0.0142804
-0.0094971
-0.00636891
-0.00775462
-0.00787987
-0.0119417
-0.0121086
-0.00888285
-0.0133497
-0.0195238
-0.0258979
-0.025532
-0.0177583
-0.0174374
-0.0117326
-0.0119483
-0.00788626
-0.00722558
-0.00793639
-0.00590575
-0.00792615
-0.00959558
-0.00881814
-0.0119026
-0.011914
-0.00958973
-0.00959402
-0.00883457
-0.011903
-0.0119335
-0.009607
-0.00795118
-0.00591967
-0.00792243
-0.00637871
-0.00635849
-0.00636452
-0.00636803
-0.0059145
-0.00793446
-0.00792519
-0.00722308
-0.00958186
-0.00882799
-0.0119145
-0.0119049
-0.010958
-0.0144862
-0.0132562
-0.0178063
-0.0177829
-0.0177801
-0.0177952
-0.0132386
-0.0145048
-0.0144983
-0.0109612
-0.0145006
-0.0132643
-0.0177799
-0.017833
-0.0145206
-0.0109259
-0.0119327
-0.0122229
-0.00881603
-0.00957568
-0.00720164
-0.00793828
-0.00809924
-0.00590541
-0.0063905
-0.00635264
-0.00569909
-0.00432867
-0.00561151
-0.00487187
-0.00566342
-0.00432433
-0.00565357
-0.00486989
-0.00561634
-0.00432491
-0.00568532
-0.00635325
-0.00637468
-0.00483531
-0.00527366
-0.00456692
-0.00401218
-0.00289269
-0.00401881
-0.0038299
-0.0039232
-0.00393094
-0.0028807
-0.00401048
-0.00399094
-0.00382507
-0.00402754
-0.0028945
-0.00534071
-0.00397439
-0.00387786
-0.00343896
-0.00464986
-0.00416696
-0.00404341
-0.00405015
-0.00415682
-0.00388454
-0.004279
-0.0046372
-0.00334752
-0.00396973
-0.00533458
-0.00387837
-0.00573494
-0.00460347
-0.0059337
-0.00593704
-0.00888312
-0.0133506
-0.017762
-0.0163182
-0.0214046
-0.0193669
-0.0257707
-0.0257964
-0.0257659
-0.0258723
-0.019407
-0.0214141
-0.0214355
-0.0162706
-0.0178292
-0.0183069
-0.0132532
-0.0144802
-0.0148959
-0.0105376
-0.0108637
-0.0131667
-0.0121922
-0.0162799
-0.0194748
-0.0178939
-0.0236384
-0.0278647
-0.0252826
-0.0330468
-0.0385463
-0.0344105
-0.0439902
-0.0449171
-0.0400924
-0.0336599
-0.0294618
-0.0242697
-0.020829
-0.0168763
-0.0142156
-0.0113684
-0.00944692
-0.00809346
-0.00866186
-0.00986905
-0.00694406
-0.00719903
-0.00572809
-0.00528359
-0.00629255
-0.00754988
-0.00518901
-0.00492491
-0.00466589
-0.00582381
-0.0043387
-0.00559127
-0.00484107
-0.00528131
-0.00459924
-0.00405548
-0.00297185
-0.0035654
-0.00493426
-0.00277141
-0.00403061
-0.00370839
-0.00452872
-0.00396609
-0.00335169
-0.00371803
-0.00429051
-0.00388275
-0.00464213
-0.00396856
-0.00401449
-0.00457189
-0.00632226
-0.00633661
-0.00937861
-0.0140232
-0.020478
-0.0194095
-0.0258452
-0.0266138
-0.0219938
-0.0214025
-0.0171425
-0.0115619
-0.00769511
-0.00766843
-0.00934237
-0.0139345
-0.0203131
-0.024623
-0.0234257
-0.0305372
-0.0274007
-0.0359491
-0.0361848
-0.0360532
-0.0373985
-0.0274319
-0.0305708
-0.0313321
-0.0226389
-0.0188699
-0.0249647
-0.0246808
-0.0344727
-0.034894
-0.0363876
-0.0390506
-0.0447741
-0.0316248
-0.0354132
-0.0260923
-0.0231568
-0.0275046
-0.0273875
-0.0306395
-0.0373076
-0.0372874
-0.0421038
-0.0316517
-0.0358397
-0.0275303
-0.0373286
-0.0475463
-0.0467743
-0.0353061
-0.0345978
-0.0250492
-0.0255266
-0.0294424
-0.0295306
-0.0294574
-0.0209025
-0.0177869
-0.0177589
-0.0119427
-0.0117315
-0.0119422
-0.0121046
-0.0180013
-0.0157923
-0.0172994
-0.0116289
-0.011489
-0.0115214
-0.0115756
-0.00764625
-0.00762637
-0.00523431
-0.00527152
-0.00394158
-0.00771821
-0.0171574
-0.0171013
-0.0247182
-0.0248155
-0.0249876
-0.0346651
-0.0345189
-0.0349316
-0.0249903
-0.0420579
-0.0490512
-0.0422143
-0.0555355
-0.0471197
-0.0464465
-0.0591446
-0.0593285
-0.0584355
-0.0712697
-0.0959979
-0.0978052
-0.0557917
-0.0715949
-0.0993176
-0.0788984
-0.0621702
-0.0775869
-0.0784437
-0.0632591
-0.06129
-0.105137
-0.0804074
-0.0777948
-0.101251
-0.0865733
-0.0866589
-0.0816588
-0.0786182
-0.0547028
-0.0765771
-0.0572484
-0.0519905
-0.0398618
-0.0353469
-0.0255713
-0.025531
-0.027574
-0.0274983
-0.027371
-0.0372989
-0.0372664
-0.0353985
-0.0260798
-0.0184819
-0.0265909
-0.0313189
-0.0274297
-0.0360473
-0.0324167
-0.0420823
-0.041831
-0.0372328
-0.0481607
-0.0431153
-0.0482883
-0.0373015
-0.0275083
-0.0255139
-0.0258881
-0.035827
-0.0316612
-0.0353028
-0.0345935
-0.0250459
-0.0174353
-0.0177529
-0.0133417
-0.00887716
-0.00593272
-0.00794076
-0.00764507
-0.00958961
-0.00525143
-0.00637817
-0.00566787
-0.00399069
-0.00417007
-0.00393654
-0.00285574
-0.00403191
-0.00460479
-0.0114891
-0.0115415
-0.0119319
-0.00938871
-0.0113603
-0.0131483
-0.0142011
-0.0140371
-0.0168639
-0.0182904
-0.020808
-0.017869
-0.0236121
-0.0226134
-0.0278298
-0.0242513
-0.0294325
-0.0289357
-0.0204983
-0.0171109
-0.017828
-0.0170246
-0.0177928
-0.0203718
-0.0245764
-0.0258628
-0.0244202
-0.0305096
-0.02871
-0.0339986
-0.0361678
-0.0336363
-0.0373687
-0.0400561
-0.0343651
-0.0439481
-0.0422828
-0.0509112
-0.0448926
-0.039385
-0.0515934
-0.0623841
-0.0621093
-0.0621118
-0.0670804
-0.0635964
-0.056722
-0.045159
-0.0486108
-0.0389865
-0.051017
-0.0618063
-0.0681597
-0.0647195
-0.0562291
-0.044587
-0.0336885
-0.0418825
-0.0360123
-0.0287293
-0.0203872
-0.0390129
-0.0510829
-0.0619528
-0.0684886
-0.0647754
-0.0562292
-0.0445369
-0.0336259
-0.0359923
-0.034176
-0.024725
-0.0172197
-0.013106
-0.00874207
-0.00586812
-0.00547812
-0.00852822
-0.0191523
-0.0269869
-0.0365973
-0.0453824
-0.0569827
-0.0623178
-0.0697269
-0.0644783
-0.0524439
-0.0585572
-0.0631333
-0.0618108
-0.0511573
-0.0508108
-0.0388439
-0.0286024
-0.0202918
-0.0139171
-0.00932882
-0.00631302
-0.00631439
-0.00457476
-0.0052645
-0.00526198
-0.00398856
-0.00464812
-0.00396167
-0.00404995
-0.00458894
-0.00632078
-0.00768708
-0.00719435
-0.00955729
-0.00960619
-0.00887813
-0.00788374
-0.00775175
-0.00511263
-0.00787365
-0.00797878
-0.00561434
-0.00422928
-0.00554562
-0.00596024
-0.00392963
-0.00840399
-0.0120988
-0.0119447
-0.0117279
-0.0119301
-0.017736
-0.0174303
-0.0177574
-0.0133435
-0.0195168
-0.0195228
-0.027524
-0.0352897
-0.0324927
-0.0360252
-0.0273429
-0.0359703
-0.0419037
-0.037165
-0.0482013
-0.0483155
-0.0418218
-0.0419259
-0.037237
-0.0481403
-0.0486382
-0.0418229
-0.0324466
-0.0421114
-0.0427849
-0.0315148
-0.026276
-0.034063
-0.028907
-0.0393457
-0.0515354
-0.052115
-0.0564734
-0.0621058
-0.062125
-0.0623183
-0.0671053
-0.0635892
-0.0567888
-0.0452378
-0.0388725
-0.028627
-0.0337872
-0.0244947
-0.0305384
-0.0305019
-0.0305323
-0.0305043
-0.0274019
-0.036078
-0.0359942
-0.0324936
-0.0418614
-0.0372655
-0.0483982
-0.0482767
-0.0431516
-0.055337
-0.055566
-0.0554318
-0.043094
-0.04756
-0.0468133
-0.0398752
-0.0399523
-0.0457427
-0.0519902
-0.0486995
-0.0486937
-0.0735757
-0.0539089
-0.0512505
-0.0764171
-0.0785132
-0.081543
-0.0777128
-0.0815448
-0.0818826
-0.0781447
-0.0537468
-0.0754892
-0.0555451
-0.0741662
-0.0744882
-0.0741723
-0.0743863
-0.0736715
-0.0637597
-0.0808569
-0.105473
-0.0560999
-0.078307
-0.0856549
-0.0814347
-0.0866949
-0.0812782
-0.0772024
-0.102531
-0.0806954
-0.0560746
-0.0615236
-0.104638
-0.0609395
-0.0766223
-0.0558212
-0.074778
-0.0556738
-0.0520995
-0.0457747
-0.046769
-0.0467782
-0.0475327
-0.0467574
-0.0352741
-0.0467696
-0.0458166
-0.0345984
-0.0352955
-0.0255228
-0.0258723
-0.0275275
-0.0373544
-0.0373169
-0.046772
-0.0488037
-0.0462258
-0.0414282
-0.0678884
-0.0465074
-0.0592931
-0.0620474
-0.0556073
-0.0590751
-0.0652447
-0.0736671
-0.0536681
-0.0510814
-0.0765977
-0.0572534
-0.0556773
-0.0743816
-0.0535778
-0.0756823
-0.0782498
-0.0785898
-0.0817355
-0.0731048
-0.0808224
-0.105406
-0.0782985
-0.0814578
-0.0816701
-0.0817844
-0.0819999
-0.0782447
-0.0540742
-0.0756815
-0.0802096
-0.0818361
-0.0801567
-0.0783627
-0.0539265
-0.0758785
-0.0558091
-0.0747726
-0.0749748
-0.0674471
-0.0488305
-0.0488012
-0.0673005
-0.0669766
-0.0463958
-0.0489355
-0.048807
-0.057321
-0.0669462
-0.067215
-0.0674898
-0.0622141
-0.0736853
-0.0558472
-0.0444028
-0.0391603
-0.0288291
-0.0204386
-0.0139976
-0.00935807
-0.0115532
-0.0145176
-0.0144593
-0.0109174
-0.0126309
-0.0179917
-0.0162572
-0.0213672
-0.0214378
-0.0194004
-0.0258271
-0.0257778
-0.0213937
-0.0163142
-0.0214162
-0.0170723
-0.0139134
-0.00933206
-0.0115249
-0.0115218
-0.00766583
-0.0170773
-0.0202743
-0.0285672
-0.0387864
-0.0447026
-0.0554647
-0.0552682
-0.0554559
-0.0446665
-0.0337605
-0.0244827
-0.0234758
-0.0245762
-0.0305658
-0.0304932
-0.0234048
-0.0260697
-0.0184736
-0.035809
-0.0324186
-0.0418894
-0.0419633
-0.0339292
-0.0334409
-0.0241917
-0.016843
-0.011348
-0.00753105
-0.00517442
-0.00395723
-0.00451914
-0.00627855
-0.00943431
-0.0141941
-0.0171267
-0.0208028
-0.0293663
-0.0399014
-0.0449719
-0.0565975
-0.0541894
-0.0563273
-0.0507388
-0.0508562
-0.0616308
-0.0680942
-0.0646844
-0.0563318
-0.0615337
-0.0679193
-0.0649049
-0.0615262
-0.0689956
-0.0647163
-0.0688346
-0.0353995
-0.0431284
-0.0551359
-0.0430748
-0.051817
-0.0627859
-0.0766042
-0.0802538
-0.0806868
-0.0856429
-0.0812625
-0.0866674
-0.086654
-0.0865492