/*--------------------------------*- C++ -*----------------------------------*\
| =========                 |                                                 |
| \\      /  F ield         | OpenFOAM: The Open Source CFD Toolbox           |
|  \\    /   O peration     | Version:  2306                                  |
|   \\  /    A nd           | Website:  www.openfoam.com                      |
|    \\/     M anipulation  |                                                 |
\*---------------------------------------------------------------------------*/
FoamFile
{
    version     2.0;
    format      ascii;
    arch        "LSB;label=32;scalar=64";
    class       volVectorField;
    location    "0.3";
    object      flux;
}
// * * * * * * * * * * * * * * * * * * * * * * * * * * * * * * * * * * * * * //

dimensions      [0 1 -1 1 0 0 0];

internalField   nonuniform List<vector> 
2658
(
(9.00614e-07 8.7827e-07 -6.48049e-06)
(1.36846e-06 5.3373e-07 -5.89784e-06)
(3.76672e-07 1.36444e-07 -2.49778e-06)
(3.14504e-08 6.496e-09 -2.11946e-06)
(-9.21717e-07 -9.10632e-07 -3.17316e-06)
(-7.69022e-07 1.09195e-06 -3.20831e-06)
(5.46072e-07 -6.48208e-07 -2.02733e-06)
(5.5066e-07 5.45773e-07 -1.9906e-06)
(6.51639e-09 3.17791e-08 -2.11827e-06)
(1.09105e-06 -7.83523e-07 -3.20394e-06)
(-9.40095e-07 1.71347e-07 -4.31634e-06)
(-8.7489e-07 -3.02421e-06 -4.24929e-06)
(7.68016e-07 2.16414e-06 -6.47458e-06)
(8.1286e-07 2.18545e-06 -6.33591e-06)
(5.92099e-07 1.83613e-06 -6.17521e-06)
(1.61317e-08 1.85295e-06 -6.31462e-06)
(-1.90907e-08 1.97797e-06 -6.47246e-06)
(-5.20378e-08 1.83365e-06 -6.3055e-06)
(-6.25503e-07 1.87535e-06 -6.14453e-06)
(-8.71247e-07 2.1612e-06 -6.2428e-06)
(-9.18059e-07 2.11116e-06 -6.35648e-06)
(-2.12309e-06 1.91491e-06 -5.73928e-06)
(-2.37935e-06 6.69874e-07 -6.40495e-06)
(1.62208e-06 -3.10465e-07 -4.24729e-06)
(-6.2969e-07 5.68498e-07 -6.94369e-06)
(-1.0156e-06 1.96667e-06 -6.37987e-06)
(-2.16339e-06 -3.87368e-07 -5.918e-06)
(-2.54499e-07 1.40287e-07 -6.45856e-06)
(-1.57958e-06 1.60174e-06 -6.86921e-06)
(-1.80029e-06 -8.65836e-11 -6.06047e-06)
(-1.57956e-06 -1.60176e-06 -6.86913e-06)
(-2.16344e-06 3.87401e-07 -5.91798e-06)
(-1.01563e-06 -1.96677e-06 -6.37977e-06)
(-2.37944e-06 -6.69899e-07 -6.40481e-06)
(-6.2962e-07 -5.68483e-07 -6.94362e-06)
(1.62206e-06 3.10502e-07 -4.24716e-06)
(-5.09859e-07 6.59068e-08 -4.70186e-06)
(3.7577e-07 1.68051e-07 -8.003e-06)
(-2.12285e-06 -1.91548e-06 -5.7392e-06)
(-9.18327e-07 -2.11127e-06 -6.3566e-06)
(-8.71271e-07 -2.16134e-06 -6.24291e-06)
(-6.25457e-07 -1.87541e-06 -6.14452e-06)
(-5.2165e-08 -1.83351e-06 -6.30541e-06)
(7.31708e-08 8.0118e-07 -7.94697e-06)
(-6.9134e-07 5.3541e-08 -4.12235e-06)
(6.52244e-07 9.66546e-08 -4.08573e-06)
(-9.40063e-07 -1.71347e-07 -4.31633e-06)
(-5.05824e-08 8.37359e-07 -7.95534e-06)
(1.59281e-08 -1.85327e-06 -6.3147e-06)
(5.92086e-07 -1.83615e-06 -6.17522e-06)
(8.12825e-07 -2.18532e-06 -6.33581e-06)
(7.67933e-07 -2.1642e-06 -6.47469e-06)
(2.02549e-06 -2.00242e-06 -5.83162e-06)
(-3.69692e-07 3.63513e-07 -8.38512e-06)
(2.1828e-06 -7.58643e-07 -6.48083e-06)
(1.84334e-06 -5.96356e-07 -6.17598e-06)
(-8.45328e-07 5.28849e-08 -7.95099e-06)
(-8.45002e-08 -6.535e-07 -4.09761e-06)
(-2.74032e-06 -2.17584e-11 -4.34074e-06)
(1.83736e-06 3.77036e-08 -6.30952e-06)
(-8.45265e-07 -5.28451e-08 -7.95109e-06)
(1.84337e-06 5.96376e-07 -6.17604e-06)
(2.18273e-06 7.58728e-07 -6.4808e-06)
(-3.69618e-07 -3.63545e-07 -8.38508e-06)
(1.69804e-07 1.67691e-07 -4.5383e-06)
(-3.02089e-06 -8.54747e-07 -4.25739e-06)
(1.60321e-07 -9.43778e-07 -4.30789e-06)
(-1.20211e-07 -6.65275e-08 -3.29843e-06)
(-5.79968e-07 -1.2082e-06 -3.15002e-06)
(-5.8003e-07 1.20821e-06 -3.14995e-06)
(3.13642e-08 8.28684e-12 -2.12126e-06)
(3.81543e-07 6.9829e-07 -1.96544e-06)
(-7.45141e-08 -1.89722e-08 -1.2185e-06)
(-2.82599e-07 3.8117e-07 -1.15598e-06)
(2.53942e-08 3.33828e-09 -7.07214e-07)
(-3.04615e-07 -2.99229e-07 -1.15389e-06)
(3.78292e-07 -2.89662e-07 -1.15316e-06)
(3.15671e-09 2.68011e-08 -7.06087e-07)
(-2.08048e-07 1.69576e-07 -6.43474e-07)
(2.24114e-07 1.0584e-07 -6.23624e-07)
(-4.40435e-07 -1.96554e-07 -1.15154e-06)
(-2.25328e-08 -7.15087e-08 -1.21793e-06)
(7.02158e-07 3.62147e-07 -1.95618e-06)
(-6.48719e-07 5.61662e-07 -2.03334e-06)
(6.75092e-09 8.52928e-09 -2.04442e-06)
(-1.26986e-09 -3.99991e-11 -6.879e-07)
(4.25339e-10 9.88715e-10 -1.87756e-07)
(1.85e-10 3.81129e-10 -4.20108e-08)
(3.26935e-11 8.71512e-11 -7.87393e-09)
(3.04546e-12 1.5768e-11 -1.26185e-09)
(1.25601e-13 2.75883e-12 -1.75617e-10)
(-7.28496e-13 -7.32563e-13 -2.52873e-11)
(-1.00695e-13 -7.75195e-14 -8.14106e-12)
(-2.22283e-12 9.77444e-13 -7.89931e-12)
(8.69955e-13 -3.99588e-13 -5.55403e-12)
(-6.21916e-13 -3.41847e-12 -1.06465e-11)
(-1.17115e-12 -1.78498e-13 -5.44925e-12)
(-2.68024e-14 -9.73068e-13 -6.92875e-12)
(1.04714e-12 -2.30615e-13 -5.35117e-12)
(-9.4824e-13 -3.39736e-13 -5.1194e-12)
(3.92244e-13 -9.234e-13 -6.42107e-12)
(1.22041e-12 -2.59974e-13 -5.06994e-12)
(2.29214e-12 -2.57355e-12 -8.94757e-12)
(5.20766e-13 -3.8833e-13 -5.7549e-12)
(6.83357e-13 -5.69337e-13 -5.00955e-12)
(-1.9053e-12 7.96601e-13 -8.21279e-12)
(-4.29538e-14 -4.67045e-13 -6.91094e-12)
(1.22025e-13 -8.21925e-13 -2.10417e-11)
(-1.62152e-13 3.56178e-14 -6.46922e-12)
(5.24453e-13 -9.3743e-13 -6.18252e-12)
(9.11818e-13 1.83926e-13 -5.32624e-12)
(3.62872e-13 -3.51163e-13 -4.49035e-12)
(6.02606e-13 -2.79238e-15 -5.38681e-12)
(3.59409e-13 3.52226e-13 -4.4859e-12)
(9.01937e-13 -1.82558e-13 -5.31084e-12)
(5.26874e-13 9.367e-13 -6.18118e-12)
(6.87987e-13 5.75872e-13 -5.02238e-12)
(-1.90069e-12 -8.00381e-13 -8.21675e-12)
(2.29626e-12 2.58052e-12 -8.95766e-12)
(5.29919e-13 4.06434e-13 -5.77706e-12)
(1.22235e-12 2.64745e-13 -5.06905e-12)
(3.94147e-13 9.24211e-13 -6.45743e-12)
(-9.45203e-13 3.45552e-13 -5.12391e-12)
(1.04446e-12 2.37081e-13 -5.35796e-12)
(-2.56024e-12 -6.89948e-13 -8.15222e-12)
(2.21421e-12 -6.04187e-13 -8.17467e-12)
(-2.22007e-12 -9.77981e-13 -7.90259e-12)
(-6.19342e-13 3.41173e-12 -1.06423e-11)
(-1.16934e-12 1.79961e-13 -5.45335e-12)
(8.78787e-13 3.87608e-13 -5.55286e-12)
(-5.10298e-13 9.79595e-13 -7.11089e-12)
(-1.42261e-12 1.73438e-13 -5.62219e-12)
(-6.52918e-13 4.23517e-13 -6.67677e-12)
(-7.70288e-13 7.23884e-13 -5.75231e-12)
(-6.816e-13 1.02028e-12 -7.27199e-12)
(-5.09148e-13 -4.79756e-13 -7.32419e-12)
(-9.71975e-13 3.33854e-13 -7.78318e-12)
(-5.07303e-12 6.43645e-13 -1.38826e-11)
(1.35097e-12 -1.79739e-12 -9.25072e-12)
(1.34365e-12 1.80588e-12 -9.25477e-12)
(-9.71575e-13 -3.29878e-13 -7.78413e-12)
(-5.13826e-13 4.77974e-13 -7.32951e-12)
(-8.92883e-14 -2.77723e-13 -6.57244e-12)
(-6.86391e-13 -2.32046e-13 -6.06469e-12)
(-6.8309e-13 -4.81561e-15 -7.38791e-12)
(-6.85952e-13 2.33663e-13 -6.06953e-12)
(-3.78286e-13 4.55013e-15 -8.34469e-12)
(-1.01909e-12 2.97513e-15 -1.23562e-11)
(-1.48837e-12 -5.73161e-13 -6.32257e-12)
(-1.54822e-12 5.68622e-13 -6.35735e-12)
(-1.12409e-12 3.89088e-15 -5.18496e-12)
(-1.40254e-12 6.46956e-14 -8.78208e-12)
(-1.46417e-12 4.70924e-13 -1.26798e-11)
(-1.4964e-12 -5.81869e-13 -5.10636e-12)
(-1.85381e-12 1.92455e-12 -8.86972e-12)
(-2.79563e-12 4.55824e-13 -9.13788e-12)
(-2.0953e-12 1.9572e-12 -8.64911e-12)
(-1.09424e-12 2.46935e-12 -8.50559e-12)
(-1.35474e-12 2.63666e-12 -7.19694e-12)
(-1.19102e-12 2.01305e-12 -8.58621e-12)
(1.21503e-13 2.0725e-12 -8.62251e-12)
(-6.5853e-14 2.47694e-12 -7.06099e-12)
(-4.04329e-13 2.15248e-12 -8.57477e-12)
(7.47472e-13 1.86741e-12 -7.94751e-12)
(1.11089e-12 2.52152e-12 -6.552e-12)
(7.7712e-13 2.4448e-12 -7.6929e-12)
(1.62578e-12 1.90457e-12 -7.49291e-12)
(2.88183e-12 7.18954e-13 -8.535e-12)
(3.56418e-14 1.52838e-12 -1.95691e-11)
(8.18677e-12 4.31466e-12 -3.28838e-11)
(-3.01552e-11 -1.759e-11 -1.08534e-10)
(1.00961e-10 7.3599e-11 -3.23544e-10)
(-2.3341e-10 -1.51735e-10 -8.80213e-10)
(7.3084e-10 5.14742e-10 -2.34159e-09)
(-1.59902e-09 -1.11128e-09 -5.93521e-09)
(4.55043e-09 3.11306e-09 -1.45995e-08)
(-9.412e-09 -6.8391e-09 -3.41546e-08)
(2.40946e-08 1.60846e-08 -7.71536e-08)
(-4.66505e-08 -3.50657e-08 -1.65017e-07)
(1.06652e-07 6.95605e-08 -3.38809e-07)
(-1.90151e-07 -1.47469e-07 -6.5459e-07)
(3.87044e-07 2.46346e-07 -1.20396e-06)
(-6.22052e-07 -5.01181e-07 -2.07941e-06)
(1.14282e-06 6.85948e-07 -3.33659e-06)
(-1.12173e-06 6.97216e-07 -3.20088e-06)
(1.19402e-06 5.8989e-07 -3.12829e-06)
(-1.22974e-06 5.61642e-07 -3.16522e-06)
(1.09101e-06 7.83554e-07 -3.20388e-06)
(-9.21762e-07 9.10608e-07 -3.17311e-06)
(3.14474e-08 -6.49863e-09 -2.11942e-06)
(-7.68971e-07 -1.09197e-06 -3.20833e-06)
(1.60257e-07 9.43798e-07 -4.3078e-06)
(-3.02084e-06 8.54713e-07 -4.25742e-06)
(1.69767e-07 -1.67659e-07 -4.53829e-06)
(-8.74948e-07 3.0242e-06 -4.24929e-06)
(4.32932e-07 -4.31476e-07 -6.67809e-06)
(6.74483e-09 -8.53696e-09 -2.0444e-06)
(-1.2639e-09 3.28085e-11 -6.87895e-07)
(4.25126e-10 -9.88376e-10 -1.87753e-07)
(1.85125e-10 -3.81096e-10 -4.20098e-08)
(3.27795e-11 -8.72605e-11 -7.87362e-09)
(3.05605e-12 -1.57303e-11 -1.26179e-09)
(1.27603e-13 -2.75596e-12 -1.75613e-10)
(-7.29778e-13 7.28305e-13 -2.52886e-11)
(-1.011e-13 7.36079e-14 -8.14452e-12)
(-1.16312e-14 -7.44895e-15 -7.53072e-12)
(-9.54681e-13 -6.08525e-13 -8.85143e-12)
(-6.33031e-13 1.12498e-12 -2.33493e-11)
(4.68998e-13 -5.48923e-13 -8.74332e-12)
(4.69699e-13 5.53314e-13 -8.74959e-12)
(-9.48544e-13 6.15902e-13 -8.8493e-12)
(-5.61264e-15 6.81068e-15 -7.53232e-12)
(-6.35909e-13 -1.13858e-12 -2.33434e-11)
(-2.04218e-13 -1.35948e-13 -7.62363e-12)
(2.228e-12 6.12159e-13 -8.18862e-12)
(-2.56438e-12 6.8593e-13 -8.15776e-12)
(2.42247e-13 -3.37656e-12 -1.02026e-11)
(1.73453e-12 7.42492e-13 -7.26123e-12)
(-3.03078e-14 -1.17971e-14 -7.44777e-12)
(-3.69616e-13 1.01071e-13 -6.9198e-12)
(-2.94088e-13 -3.34862e-13 -7.61239e-12)
(-1.21486e-13 -5.51904e-14 -8.17622e-12)
(-4.37055e-13 1.98447e-13 -2.591e-11)
(6.38734e-14 3.64941e-13 -2.41433e-11)
(4.47996e-14 4.12247e-16 -2.74554e-11)
(6.4043e-14 -3.66674e-13 -2.41417e-11)
(-2.76761e-14 5.6821e-15 -7.44978e-12)
(-5.153e-14 4.75571e-13 -6.91399e-12)
(-9.88395e-13 -8.44066e-13 -8.03696e-12)
(1.11092e-13 8.12669e-13 -2.10306e-11)
(1.30281e-13 -6.64608e-13 -7.77077e-12)
(1.29226e-13 6.62919e-13 -7.7708e-12)
(-9.90065e-13 8.5303e-13 -8.04687e-12)
(-4.1313e-14 1.7778e-15 -8.46522e-12)
(4.26903e-13 -4.12877e-13 -8.11423e-12)
(-1.04499e-12 -7.29149e-13 -8.6795e-12)
(-1.04791e-12 7.3849e-13 -8.68285e-12)
(-8.15904e-14 -1.10399e-12 -2.22044e-11)
(4.26669e-13 4.17709e-13 -8.11222e-12)
(-4.63622e-14 -1.68204e-13 -6.52874e-12)
(-7.18294e-14 3.65065e-15 -4.12311e-12)
(-8.40379e-14 -1.77366e-13 -4.19766e-12)
(-9.29701e-14 -9.46466e-14 -4.00529e-12)
(4.92378e-13 5.41635e-13 -5.05994e-12)
(-2.17435e-14 -1.70656e-14 -4.14206e-12)
(8.54943e-14 1.85361e-15 -4.28136e-12)
(-3.57673e-13 1.74624e-15 -1.01818e-11)
(-7.12109e-13 -9.46005e-16 -2.47412e-11)
(1.00027e-13 -1.48527e-12 -1.59336e-11)
(2.23466e-12 1.48617e-12 -1.49324e-11)
(1.24087e-12 2.24275e-12 -7.70099e-12)
(1.78457e-12 -4.71049e-13 -5.26138e-12)
(1.33243e-12 1.47322e-12 -7.01893e-12)
(-5.7213e-12 -2.91219e-12 -1.45113e-11)
(1.21877e-11 1.20471e-11 -4.92412e-11)
(-3.63882e-11 -2.35978e-11 -1.24598e-10)
(-3.63916e-11 2.3591e-11 -1.24607e-10)
(4.63202e-12 1.89222e-13 -1.25022e-10)
(-8.01967e-11 5.91702e-11 -3.33891e-10)
(5.58133e-12 -1.55605e-11 -3.34485e-10)
(2.45619e-10 -2.18069e-10 -9.15065e-10)
(-5.73266e-10 4.53187e-10 -2.40179e-09)
(1.97511e-11 -1.11459e-10 -2.34078e-09)
(1.63072e-09 -1.42106e-09 -6.11308e-09)
(-3.64737e-09 2.97841e-09 -1.49339e-08)
(3.72549e-11 -6.06239e-10 -1.41231e-08)
(9.31566e-09 -8.02066e-09 -3.51241e-08)
(-1.98088e-08 1.65426e-08 -7.89703e-08)
(-1.3749e-10 -2.69122e-09 -7.2034e-08)
(4.49954e-08 -3.83068e-08 -1.69792e-07)
(-8.90449e-08 7.61567e-08 -3.47019e-07)
(-1.73888e-09 -1.05208e-08 -3.03536e-07)
(1.80731e-07 -1.50818e-07 -6.73882e-07)
(-3.20529e-07 2.84509e-07 -1.2353e-06)
(-6.92138e-09 -4.00044e-08 -1.02818e-06)
(6.05839e-07 -4.76203e-07 -2.12726e-06)
(-8.73377e-07 8.37674e-07 -3.53158e-06)
(-6.06273e-08 -1.75577e-07 -2.87504e-06)
(1.89616e-06 -1.3011e-06 -5.12396e-06)
(3.30651e-07 -7.02552e-07 -3.91994e-06)
(2.64802e-06 -1.67341e-06 -5.47921e-06)
(2.648e-06 1.67344e-06 -5.47917e-06)
(-2.54445e-07 -1.40226e-07 -6.45843e-06)
(7.6438e-07 -5.73391e-07 -6.93567e-06)
(-2.07585e-07 9.15489e-07 -5.65413e-06)
(9.49753e-07 8.13834e-07 -5.14733e-06)
(7.75951e-08 -3.82725e-11 -7.85744e-06)
(-5.39021e-07 -5.44728e-07 -4.82849e-06)
(-5.39003e-07 5.44699e-07 -4.82852e-06)
(6.45017e-07 5.90098e-07 -4.87582e-06)
(-1.50305e-08 -2.52733e-11 -7.83729e-06)
(-7.1457e-07 -6.97353e-07 -4.92967e-06)
(-7.14548e-07 6.97335e-07 -4.92971e-06)
(2.032e-07 2.99369e-07 -4.78932e-06)
(-2.66225e-07 -2.9397e-11 -7.89374e-06)
(-1.15428e-06 -1.94934e-06 -6.34523e-06)
(-1.1543e-06 1.9493e-06 -6.3452e-06)
(5.32244e-07 -1.37325e-06 -8.51925e-06)
(1.83609e-06 2.65535e-11 -1.24983e-05)
(5.32256e-07 1.37322e-06 -8.51926e-06)
(7.79681e-07 -1.07913e-06 -8.67781e-06)
(2.02064e-06 6.84805e-07 -1.23683e-05)
(9.08621e-07 1.5795e-06 -8.70055e-06)
(1.17393e-06 1.16248e-06 -1.01609e-05)
(1.22989e-06 1.21954e-06 -7.80783e-06)
(-2.03651e-06 -2.02778e-06 -7.5744e-06)
(-1.17111e-06 1.32505e-06 -6.12121e-06)
(9.38722e-07 1.52989e-07 -7.02221e-06)
(8.0089e-07 1.11841e-07 -9.38754e-06)
(-1.40538e-08 -8.74194e-09 -8.21185e-06)
(2.03206e-07 -2.9941e-07 -4.78929e-06)
(-1.17766e-07 -1.13725e-07 -4.63487e-06)
(-3.5451e-07 -3.59536e-07 -7.92984e-06)
(1.34029e-06 -1.15761e-06 -6.16232e-06)
(-1.08167e-06 7.72297e-07 -8.68172e-06)
(6.91209e-07 1.98883e-06 -1.23696e-05)
(1.59151e-06 8.95419e-07 -8.7063e-06)
(9.14132e-07 9.05708e-07 -9.57046e-06)
(-5.12337e-07 -5.1415e-07 -8.93002e-06)
(-6.71051e-07 1.06807e-11 -9.01127e-06)
(-5.12319e-07 5.1418e-07 -8.9299e-06)
(-3.54579e-07 3.59562e-07 -7.92978e-06)
(-1.1711e-06 -1.32505e-06 -6.12119e-06)
(-2.0366e-06 2.02784e-06 -7.57447e-06)
(9.08638e-07 -1.57956e-06 -8.70025e-06)
(2.02066e-06 -6.84789e-07 -1.23682e-05)
(7.79708e-07 1.07917e-06 -8.67772e-06)
(9.38722e-07 -1.5303e-07 -7.0223e-06)
(8.00888e-07 -1.11856e-07 -9.38751e-06)
(9.14151e-07 -9.05515e-07 -9.57024e-06)
(1.59125e-06 -8.95487e-07 -8.70663e-06)
(6.90995e-07 -1.9888e-06 -1.23694e-05)
(-1.08174e-06 -7.72309e-07 -8.68182e-06)
(1.34024e-06 1.15761e-06 -6.1623e-06)
(1.55405e-07 -9.40287e-07 -7.01802e-06)
(1.37143e-06 -5.61701e-07 -8.57303e-06)
(-2.1311e-08 -1.83048e-06 -1.25075e-05)
(-1.39803e-06 -5.17283e-07 -8.52546e-06)
(1.96501e-06 1.081e-06 -6.37876e-06)
(-1.40235e-08 2.70509e-07 -7.90278e-06)
(-3.17074e-07 -2.05013e-07 -4.77041e-06)
(-1.98238e-06 1.16515e-06 -6.34747e-06)
(-1.16146e-08 -2.78122e-07 -6.14052e-06)
(-2.28358e-07 -3.57505e-07 -6.30314e-06)
(1.62934e-08 -5.90349e-08 -2.13169e-06)
(8.20356e-09 -2.23745e-08 -7.21802e-07)
(1.90782e-09 -7.40777e-09 -1.96663e-07)
(3.44567e-10 -1.84262e-09 -4.37418e-08)
(4.91463e-11 -3.63592e-10 -8.12507e-09)
(5.06525e-12 -6.01149e-11 -1.28663e-09)
(1.63476e-13 -9.02015e-12 -1.76174e-10)
(-1.76598e-12 -2.87589e-12 -1.45437e-10)
(3.43193e-11 -1.50958e-11 -1.09742e-10)
(-3.96266e-11 -1.30271e-11 -1.11722e-10)
(3.68497e-11 -1.08641e-11 -1.12171e-10)
(-3.9297e-11 -2.13363e-11 -1.16279e-10)
(8.95196e-11 8.61875e-11 -3.20615e-10)
(-2.94502e-10 -1.80756e-10 -9.00461e-10)
(6.71161e-10 6.01776e-10 -2.28924e-09)
(-1.93759e-09 -1.29891e-09 -5.98223e-09)
(4.28039e-09 3.64485e-09 -1.41704e-08)
(-1.09854e-08 -7.91136e-09 -3.4048e-08)
(2.31296e-08 1.88634e-08 -7.44862e-08)
(-5.26461e-08 -4.04051e-08 -1.63147e-07)
(1.04e-07 8.17397e-08 -3.25848e-07)
(-2.08029e-07 -1.69575e-07 -6.43461e-07)
(3.78275e-07 2.89674e-07 -1.15312e-06)
(-6.487e-07 -5.61668e-07 -2.03334e-06)
(6.52697e-09 -3.18079e-08 -2.11822e-06)
(5.50663e-07 -5.45748e-07 -1.99059e-06)
(5.46e-07 6.48262e-07 -2.02731e-06)
(3.81612e-07 -6.98308e-07 -1.9655e-06)
(-2.07495e-07 4.32047e-07 -1.15024e-06)
(2.68217e-08 -4.48515e-12 -7.1407e-07)
(-2.07457e-07 -4.32055e-07 -1.15026e-06)
(1.13606e-07 2.23367e-07 -6.27446e-07)
(1.63332e-07 -2.07251e-07 -6.42461e-07)
(1.64643e-07 1.63152e-07 -6.33187e-07)
(-8.46375e-08 -8.27715e-08 -3.23029e-07)
(-7.99145e-08 1.05474e-07 -3.27194e-07)
(7.53067e-09 1.5275e-09 -1.87173e-07)
(3.93362e-08 3.90841e-08 -1.60835e-07)
(1.30861e-09 8.20815e-09 -1.86623e-07)
(1.04016e-07 -8.17353e-08 -3.2587e-07)
(-7.07904e-09 -2.53117e-08 -3.63033e-07)
(-1.22509e-07 -5.5092e-08 -3.25181e-07)
(1.16743e-07 -6.23818e-08 -3.21589e-07)
(-7.52157e-10 8.12067e-09 -1.8779e-07)
(-5.6865e-08 2.87483e-08 -1.59336e-07)
(5.2162e-08 3.14167e-08 -1.5863e-07)
(-1.10223e-07 -6.97914e-08 -3.2309e-07)
(9.43959e-10 -2.64785e-08 -3.61101e-07)
(-2.26225e-07 1.21965e-07 -6.28492e-07)
(-1.72292e-09 2.6376e-08 -7.09732e-07)
(4.23229e-07 -2.19003e-07 -1.13799e-06)
(-7.05631e-07 4.03494e-07 -1.97626e-06)
(-2.5786e-09 2.99738e-08 -2.11529e-06)
(-1.22974e-06 -5.61637e-07 -3.16523e-06)
(-6.6964e-08 -1.15733e-07 -3.30358e-06)
(6.52266e-07 -9.66438e-08 -4.08578e-06)
(-5.0584e-08 -8.37349e-07 -7.95543e-06)
(1.55432e-07 9.40293e-07 -7.0181e-06)
(-1.98241e-06 -1.16518e-06 -6.34744e-06)
(-3.17058e-07 2.04982e-07 -4.77036e-06)
(4.4862e-08 4.96871e-08 -6.23944e-06)
(-3.95765e-08 -3.71273e-08 -3.48456e-06)
(-7.33701e-09 -4.00871e-12 -2.19215e-06)
(-6.17651e-09 -3.52637e-08 -2.09308e-06)
(-2.90207e-09 -1.36662e-08 -7.12736e-07)
(-1.09679e-09 -5.00408e-09 -1.94463e-07)
(-3.38342e-10 -1.33371e-09 -4.33522e-08)
(-8.46333e-11 -2.76175e-10 -8.07993e-09)
(-1.74446e-11 -4.74095e-11 -1.28581e-09)
(-3.03785e-12 -7.16291e-12 -1.78088e-10)
(-4.38283e-13 -1.9836e-13 -2.59106e-11)
(-1.27513e-13 4.4438e-14 -8.18569e-12)
(-2.82226e-13 3.20943e-13 -7.59971e-12)
(-7.84239e-14 1.09556e-12 -2.22022e-11)
(-3.74154e-13 -1.02283e-13 -6.9258e-12)
(1.738e-12 -7.44321e-13 -7.27062e-12)
(2.46679e-13 3.3939e-12 -1.02127e-11)
(4.71239e-14 9.28867e-13 -2.36575e-11)
(-8.29649e-12 6.08589e-12 -3.44149e-11)
(8.22719e-12 4.74993e-12 -3.51823e-11)
(-9.70245e-12 4.72974e-12 -3.60945e-11)
(7.159e-12 6.37758e-12 -3.59029e-11)
(-6.46491e-12 5.69488e-12 -3.21214e-11)
(6.14152e-12 -9.50961e-13 -1.39468e-11)
(-7.53947e-12 -8.79505e-12 -4.14707e-11)
(2.07945e-11 3.90682e-11 -1.22784e-10)
(2.80654e-12 1.32805e-12 -1.58685e-10)
(-8.90055e-11 -9.73232e-11 -3.38654e-10)
(-8.96466e-11 8.73767e-11 -3.17893e-10)
(2.41616e-11 -2.30458e-11 -1.15304e-10)
(-1.95949e-12 -4.66791e-12 -1.52345e-10)
(5.50779e-12 -2.35238e-11 -2.02214e-10)
(-1.70306e-13 -1.58629e-13 -2.86797e-11)
(-3.17757e-13 4.36578e-14 -2.80106e-11)
(-4.36285e-13 -4.85114e-14 -2.67099e-11)
(-2.90908e-13 -1.72317e-13 -1.81119e-11)
(1.4579e-12 1.73035e-12 -3.20951e-11)
(-8.34032e-12 -1.54177e-12 -2.21085e-10)
(-1.3563e-11 -8.60509e-12 -1.63579e-10)
(4.60152e-12 6.04426e-12 -6.68902e-11)
(-7.80055e-12 -2.18431e-11 -1.92882e-10)
(-6.30484e-11 -1.86964e-10 -1.42153e-09)
(-1.06565e-10 -8.87872e-11 -1.25621e-09)
(-6.57683e-11 -3.04404e-11 -1.5471e-09)
(-4.38242e-10 -2.59848e-10 -9.49714e-09)
(-6.64043e-10 -6.05426e-10 -8.14825e-09)
(1.02295e-10 1.63484e-10 -3.67263e-09)
(2.02833e-11 3.19429e-11 -5.34554e-10)
(6.91096e-12 5.13017e-11 -5.05158e-10)
(-9.92424e-11 7.59493e-11 -3.08866e-10)
(1.03334e-10 6.68908e-11 -3.12177e-10)
(-3.03578e-10 -1.17314e-10 -8.64964e-10)
(2.86334e-10 -9.61016e-11 -8.64719e-10)
(-1.56358e-11 4.76683e-11 -4.05977e-10)
(-1.15752e-10 6.28056e-11 -3.18827e-10)
(-2.50138e-12 -3.69744e-12 -1.50724e-10)
(-1.68685e-12 -1.94957e-11 -1.96648e-10)
(-7.5647e-12 -1.77407e-10 -1.42993e-09)
(-2.52644e-11 -1.19824e-09 -9.08656e-09)
(-3.80731e-10 -1.23545e-09 -9.04693e-09)
(-1.92137e-09 -6.72716e-09 -4.8802e-08)
(-3.46107e-09 -3.30644e-09 -4.48379e-08)
(-2.48097e-09 -1.65511e-09 -4.99417e-08)
(-1.14756e-08 -8.17614e-09 -2.20333e-07)
(-1.50195e-08 -1.50501e-08 -2.06791e-07)
(1.43255e-09 2.26091e-09 -1.06263e-07)
(4.4085e-10 6.92017e-10 -2.14974e-08)
(2.73543e-10 1.29306e-09 -2.05743e-08)
(-4.65235e-09 3.11577e-09 -1.39179e-08)
(4.85749e-09 2.81598e-09 -1.39069e-08)
(-1.17314e-08 -5.52443e-09 -3.3148e-08)
(1.13887e-08 -4.6214e-09 -3.29885e-08)
(-4.58939e-10 1.58731e-09 -1.70161e-08)
(-5.23709e-09 2.51253e-09 -1.41087e-08)
(1.9515e-09 -7.27675e-10 -5.7723e-09)
(-9.17474e-11 2.97618e-10 -2.8313e-09)
(-8.41407e-10 4.24141e-10 -2.27493e-09)
(-1.41252e-11 -3.72307e-11 -1.12024e-09)
(7.66631e-10 4.66859e-10 -2.23531e-09)
(-2.03808e-09 -8.81786e-10 -5.79076e-09)
(-4.18855e-12 3.12255e-10 -2.78552e-09)
(-7.3776e-10 5.19161e-10 -2.23036e-09)
(2.69603e-10 -1.3134e-10 -8.57763e-10)
(-1.11883e-12 4.99613e-11 -3.96526e-10)
(-5.41851e-12 1.04841e-11 -5.04819e-10)
(-1.5553e-11 -1.22949e-11 -4.99874e-10)
(-8.01653e-11 -5.91638e-11 -3.33845e-10)
(4.86243e-12 6.07974e-12 -1.184e-10)
(3.20504e-11 2.92908e-11 -1.21579e-10)
(1.6958e-12 1.06421e-12 -4.25844e-11)
(-1.12667e-11 -6.67301e-12 -3.87916e-11)
(-1.44429e-12 -9.13157e-13 -1.17602e-11)
(7.55557e-12 -3.91968e-13 -4.55399e-11)
(-2.01273e-12 -1.02405e-12 -6.3645e-11)
(-9.20781e-13 1.88442e-12 -6.47248e-11)
(-3.96079e-13 7.45282e-12 -5.11098e-11)
(9.76976e-13 9.30207e-12 -6.58994e-11)
(-3.33646e-12 9.03808e-12 -6.757e-11)
(-5.61371e-13 8.20937e-13 -2.44596e-11)
(-6.30801e-12 5.17133e-12 -7.26903e-11)
(2.70276e-13 -2.64055e-13 -2.02232e-11)
(1.92963e-12 -1.7735e-14 -3.03355e-11)
(2.69573e-11 -6.83906e-12 -2.19276e-10)
(9.79313e-12 -1.0606e-11 -1.7373e-10)
(-2.98409e-11 2.55087e-11 -5.68598e-10)
(-2.15325e-11 4.8902e-11 -5.14021e-10)
(5.68706e-11 -1.97438e-10 -1.46987e-09)
(3.85374e-10 -1.29108e-09 -9.28145e-09)
(2.1337e-09 -6.98893e-09 -4.98574e-08)
(-4.09985e-11 -6.6281e-09 -4.90495e-08)
(1.41287e-10 -3.06129e-08 -2.21891e-07)
(-8.15142e-09 -3.04571e-08 -2.20423e-07)
(-2.9631e-08 -1.14323e-07 -8.18662e-07)
(-5.47906e-08 -5.86914e-08 -7.84863e-07)
(-4.22036e-08 -3.16601e-08 -7.97223e-07)
(-1.34733e-07 -1.13929e-07 -2.29221e-06)
(-1.93493e-07 -2.1398e-07 -2.40761e-06)
(-8.4697e-09 1.99682e-09 -1.45337e-06)
(2.43909e-09 4.86371e-09 -4.36346e-07)
(5.17412e-09 1.45118e-08 -4.25504e-07)
(-1.1022e-07 6.97881e-08 -3.23074e-07)
(1.16735e-07 6.23849e-08 -3.2157e-07)
(-2.2622e-07 -1.21954e-07 -6.28472e-07)
(2.24118e-07 -1.0582e-07 -6.23606e-07)
(-7.08321e-09 2.53119e-08 -3.63026e-07)
(-1.22494e-07 5.50914e-08 -3.25165e-07)
(5.5856e-08 -2.44316e-08 -1.58372e-07)
(-1.94883e-09 7.04544e-09 -8.64573e-08)
(-2.77034e-08 1.28061e-08 -7.4253e-08)
(-2.52459e-10 -1.70676e-09 -4.05021e-08)
(2.60892e-08 1.44898e-08 -7.33675e-08)
(-5.68641e-08 -2.87457e-08 -1.59327e-07)
(1.28034e-10 7.39765e-09 -8.58187e-08)
(-2.4828e-08 1.60679e-08 -7.35584e-08)
(1.0668e-08 -6.02336e-09 -3.29691e-08)
(5.93163e-13 1.66735e-09 -1.683e-08)
(-7.58155e-11 3.34067e-10 -2.0234e-08)
(-2.47549e-11 6.37711e-11 -3.4439e-09)
(-9.77515e-11 -8.75245e-11 -3.39777e-09)
(-5.73128e-10 -4.53125e-10 -2.40155e-09)
(1.67809e-11 3.61097e-11 -8.97636e-10)
(2.45613e-10 2.18015e-10 -9.14959e-10)
(5.56085e-12 1.5558e-11 -3.34452e-10)
(3.02415e-11 2.10697e-13 -3.44698e-10)
(-2.54292e-10 -1.83504e-10 -9.12631e-10)
(6.97311e-10 6.14878e-10 -2.42266e-09)
(-1.69083e-09 -1.25823e-09 -6.00693e-09)
(-1.69092e-09 1.25827e-09 -6.0069e-09)
(1.43013e-10 -1.05198e-10 -5.8395e-09)
(4.27616e-09 -3.74882e-09 -1.4833e-08)
(5.50522e-10 6.54121e-11 -1.43547e-08)
(-9.8733e-09 7.44299e-09 -3.42617e-08)
(5.36704e-10 -5.0961e-10 -3.23106e-08)
(2.23913e-08 -1.95756e-08 -7.76603e-08)
(1.79478e-09 4.94312e-10 -7.3024e-08)
(-4.84715e-08 3.70167e-08 -1.6474e-07)
(1.5365e-09 -2.15734e-09 -1.49726e-07)
(9.8181e-08 -8.49261e-08 -3.3806e-07)
(3.02648e-09 2.24169e-09 -3.06582e-07)
(-1.91642e-07 1.50792e-07 -6.50096e-07)
(4.4342e-09 -1.02775e-08 -5.65586e-07)
(3.54053e-07 -2.96196e-07 -1.18754e-06)
(-1.28146e-08 4.4151e-09 -1.03271e-06)
(-5.76552e-07 4.88625e-07 -2.05057e-06)
(2.49883e-08 -6.82063e-08 -1.69145e-06)
(1.05264e-06 -7.84061e-07 -3.2098e-06)
(-1.78163e-07 -7.75325e-08 -2.74413e-06)
(-1.13957e-06 1.15374e-06 -5.09586e-06)
(-1.65419e-07 -1.19428e-11 -4.60592e-06)
(-1.13953e-06 -1.15372e-06 -5.09582e-06)
(3.30645e-07 7.02433e-07 -3.91991e-06)
(1.89616e-06 1.30114e-06 -5.12379e-06)
(-6.06155e-08 1.75499e-07 -2.87497e-06)
(-8.73312e-07 -8.37617e-07 -3.53154e-06)
(-2.58618e-08 -6.37631e-09 -1.72015e-06)
(6.05792e-07 4.76184e-07 -2.12719e-06)
(-6.92288e-09 3.99812e-08 -1.02816e-06)
(-3.20526e-07 -2.84491e-07 -1.23528e-06)
(-6.62122e-09 3.19876e-09 -5.74906e-07)
(1.80734e-07 1.50832e-07 -6.73864e-07)
(-1.7356e-09 1.05101e-08 -3.0353e-07)
(-8.90271e-08 -7.6147e-08 -3.47014e-07)
(-8.60726e-10 1.88579e-09 -1.51737e-07)
(4.49976e-08 3.83092e-08 -1.69787e-07)
(-1.36326e-10 2.687e-09 -7.20302e-08)
(-1.98062e-08 -1.65422e-08 -7.89681e-08)
(1.04466e-11 6.64373e-10 -3.26361e-08)
(9.31536e-09 8.02024e-09 -3.5122e-08)
(3.75027e-11 6.05515e-10 -1.41222e-08)
(-3.64675e-09 -2.97822e-09 -1.49331e-08)
(4.44022e-11 1.73855e-10 -5.86382e-09)
(1.63072e-09 1.42093e-09 -6.11265e-09)
(1.98334e-11 1.1144e-10 -2.34057e-09)
(1.33717e-10 -3.81402e-12 -2.38846e-09)
(-1.23967e-10 -1.5371e-10 -4.07284e-09)
(-2.08765e-11 -2.09899e-11 -6.41491e-10)
(-3.61722e-12 -1.83768e-12 -9.58955e-11)
(1.01641e-12 9.7447e-13 -1.8455e-11)
(-3.56808e-13 -7.82593e-16 -1.26461e-11)
(-6.31769e-12 3.46579e-15 -4.02774e-11)
(-4.27818e-11 -3.66548e-14 -2.43531e-10)
(-2.64077e-10 -3.04469e-14 -1.56867e-09)
(-1.49016e-09 4.24965e-14 -9.34015e-09)
(-7.2253e-09 1.27323e-12 -4.84661e-08)
(-2.79428e-08 7.57902e-12 -2.11181e-07)
(-7.72875e-08 7.16152e-11 -7.48658e-07)
(-1.24037e-07 5.36888e-12 -2.08495e-06)
(-6.89037e-08 -1.42434e-11 -4.2651e-06)
(-1.96083e-07 -8.87631e-11 -6.28305e-06)
(-1.16587e-06 5.32299e-07 -5.82736e-06)
(-1.16586e-06 -5.32358e-07 -5.82733e-06)
(-1.17717e-06 -7.23668e-07 -4.9026e-06)
(-9.9405e-07 -7.82631e-07 -6.32371e-06)
(-2.43657e-07 -1.20628e-07 -3.79286e-06)
(-1.17308e-07 -3.64375e-07 -2.44364e-06)
(-5.55968e-07 -1.34008e-06 -5.83875e-06)
(7.24062e-07 3.05756e-06 -4.32068e-06)
(8.99349e-07 -6.61101e-08 -4.19319e-06)
(3.8575e-08 1.20288e-07 -3.293e-06)
(2.45415e-08 1.2275e-08 -3.35491e-06)
(2.69412e-08 -5.20863e-08 -3.30794e-06)
(-1.78134e-07 7.75337e-08 -2.74409e-06)
(1.05257e-06 7.84107e-07 -3.20975e-06)
(2.50062e-08 6.81701e-08 -1.69141e-06)
(-5.76547e-07 -4.88606e-07 -2.05056e-06)
(-7.94025e-08 -6.47714e-12 -1.96877e-06)
(-8.15293e-08 -4.6318e-12 -2.11895e-06)
(-3.63591e-08 -5.4645e-12 -7.24246e-07)
(4.44857e-09 1.02738e-08 -5.65564e-07)
(-1.91633e-07 -1.50789e-07 -6.50089e-07)
(3.54025e-07 2.96188e-07 -1.18749e-06)
(-1.28244e-08 -4.41558e-09 -1.03271e-06)
(-1.39479e-08 -2.69067e-08 -1.32059e-06)
(-7.25589e-09 -9.33962e-09 -4.01633e-07)
(3.02451e-09 -2.24688e-09 -3.06577e-07)
(9.8163e-08 8.49261e-08 -3.38047e-07)
(1.53965e-09 2.15413e-09 -1.49721e-07)
(-4.84671e-08 -3.70165e-08 -1.64741e-07)
(-3.67877e-09 3.51003e-13 -1.75546e-07)
(-1.13644e-08 4.48956e-13 -1.97856e-07)
(-2.73102e-09 -1.28742e-13 -4.40859e-08)
(-5.23523e-10 -9.48947e-14 -8.20884e-09)
(1.43204e-10 1.04862e-10 -5.83922e-09)
(4.27566e-09 3.74868e-09 -1.48322e-08)
(-9.87302e-09 -7.44254e-09 -3.4262e-08)
(2.23895e-08 1.95766e-08 -7.76573e-08)
(1.79577e-09 -4.94666e-10 -7.30206e-08)
(-2.24787e-09 -2.46964e-09 -9.83808e-08)
(-5.21852e-10 -5.15629e-10 -1.98926e-08)
(4.55151e-12 -1.159e-13 -8.27388e-09)
(-2.34632e-12 -3.149e-14 -1.30556e-09)
(-6.50214e-13 -4.58767e-15 -1.80483e-10)
(-1.0479e-11 -7.64566e-15 -1.82952e-10)
(4.64353e-12 -2.09218e-13 -1.25021e-10)
(9.90426e-11 8.94651e-11 -3.50738e-10)
(7.26518e-12 -6.54889e-15 -1.55755e-10)
(9.9051e-11 -8.94901e-11 -3.5076e-10)
(3.02049e-11 -2.37953e-13 -3.44725e-10)
(-2.54297e-10 1.83486e-10 -9.12677e-10)
(2.95086e-11 -1.49153e-11 -9.0737e-10)
(6.97466e-10 -6.15008e-10 -2.42289e-09)
(1.3373e-10 3.7753e-12 -2.38856e-09)
(-9.77542e-11 8.74239e-11 -3.39785e-09)
(-8.17634e-11 -2.25366e-14 -1.30799e-09)
(2.95093e-11 1.48629e-11 -9.07274e-10)
(1.40145e-11 -4.4108e-14 -1.09158e-09)
(-1.55527e-11 1.22706e-11 -4.99892e-10)
(-2.00814e-12 1.01781e-12 -6.36517e-11)
(-1.12693e-11 6.67554e-12 -3.87969e-11)
(1.70665e-12 -1.06206e-12 -4.25957e-11)
(3.20478e-11 -2.93009e-11 -1.21602e-10)
(7.54754e-12 3.81661e-13 -4.55447e-11)
(1.218e-11 -1.20568e-11 -4.92405e-11)
(8.73449e-14 1.4749e-12 -1.59322e-11)
(-5.72312e-12 2.90853e-12 -1.45118e-11)
(2.51e-12 6.75533e-17 -2.32712e-11)
(1.33324e-12 -1.47502e-12 -7.00729e-12)
(1.78399e-12 4.69348e-13 -5.25575e-12)
(1.23463e-12 -2.2275e-12 -7.70091e-12)
(2.87808e-12 -7.11195e-13 -8.53267e-12)
(2.23156e-12 -1.47635e-12 -1.49321e-11)
(1.11085e-12 -1.99822e-13 -7.99589e-12)
(-1.43264e-13 -3.33253e-13 -5.40941e-12)
(3.80232e-13 -2.66006e-13 -6.07375e-12)
(-2.09006e-14 1.69013e-14 -4.12825e-12)
(-8.68782e-14 1.74873e-13 -4.19886e-12)
(4.91579e-13 -5.41433e-13 -5.05476e-12)
(-1.05007e-13 9.43125e-14 -4.00599e-12)
(5.36512e-14 -5.88395e-13 -5.58955e-12)
(-5.03368e-14 1.92e-13 -4.4123e-12)
(-6.0163e-14 2.0649e-15 -4.35908e-12)
(-4.89457e-14 -1.885e-13 -4.41078e-12)
(-4.44303e-14 -9.6175e-14 -4.20801e-12)
(-2.39125e-14 9.74418e-13 -6.95262e-12)
(5.32687e-14 5.90808e-13 -5.5984e-12)
(-4.60073e-14 1.66342e-13 -6.53847e-12)
(3.76947e-13 2.66213e-13 -6.07463e-12)
(-1.65288e-13 -4.69709e-14 -6.46012e-12)
(-1.43557e-13 3.30585e-13 -5.40686e-12)
(1.10683e-12 1.98993e-13 -7.98692e-12)
(-1.26021e-13 1.66143e-13 -6.89322e-12)
(3.30352e-14 -1.84585e-13 -4.63678e-12)
(3.99765e-14 -1.15753e-13 -4.47102e-12)
(-1.60248e-13 6.0564e-13 -5.90243e-12)
(-6.34052e-13 5.80739e-13 -5.83651e-12)
(-1.81949e-14 7.25014e-15 -4.99022e-12)
(-5.48298e-13 2.26487e-13 -6.6146e-12)
(4.28142e-13 1.35941e-12 -7.47413e-12)
(1.9053e-12 -8.46207e-13 -8.89405e-12)
(-2.85959e-12 2.80003e-12 -1.04315e-11)
(-6.73125e-13 1.35509e-12 -2.23562e-11)
(2.14942e-14 2.59224e-15 -4.56146e-12)
(-1.0791e-13 9.39777e-15 -9.30742e-12)
(-1.27991e-13 1.69234e-15 -2.95653e-11)
(-6.77541e-13 1.4002e-15 -2.91684e-11)
(-1.81944e-13 8.18258e-15 -9.11036e-12)
(-3.73309e-12 1.3505e-15 -1.86439e-10)
(-2.13346e-11 -1.50367e-15 -1.33472e-09)
(-1.02561e-10 -3.79434e-14 -8.39722e-09)
(-4.0286e-10 -1.3251e-13 -4.51709e-08)
(1.31093e-10 -6.3815e-14 -4.4788e-08)
(1.07744e-09 6.85422e-13 -2.02557e-07)
(5.80793e-09 2.57765e-12 -7.47136e-07)
(2.04464e-08 -3.4678e-12 -2.19583e-06)
(-8.59286e-08 -1.19142e-11 -5.73063e-06)
(-4.60667e-07 5.90762e-12 -5.45866e-06)
(1.46089e-06 -5.75614e-11 -1.00509e-05)
(-2.0761e-07 -9.15559e-07 -5.65411e-06)
(7.64369e-07 5.73419e-07 -6.93583e-06)