/*--------------------------------*- C++ -*----------------------------------*\
| =========                 |                                                 |
| \\      /  F ield         | OpenFOAM: The Open Source CFD Toolbox           |
|  \\    /   O peration     | Version:  2306                                  |
|   \\  /    A nd           | Website:  www.openfoam.com                      |
|    \\/     M anipulation  |                                                 |
\*---------------------------------------------------------------------------*/
FoamFile
{
    version     2.0;
    format      ascii;
    arch        "LSB;label=32;scalar=64";
    class       volScalarField;
    location    "0.3";
    object      gradTy;
}
// * * * * * * * * * * * * * * * * * * * * * * * * * * * * * * * * * * * * * //

dimensions      [0 -1 0 1 0 0 0];

internalField   nonuniform List<scalar> 
2658
(
0.00750658
0.0045618
0.00116619
5.55214e-05
-0.00778318
0.0093329
-0.00554024
0.00466473
0.000271617
-0.00669678
0.0014645
-0.025848
0.0184969
0.018679
0.0156935
0.0158372
0.0169057
0.0156722
0.0160286
0.0184718
0.0180441
0.0163667
0.00572542
-0.00265355
0.00485896
0.0168091
-0.00331084
0.00119903
0.0136901
-7.4003e-07
-0.0136903
0.00331112
-0.01681
-0.00572563
-0.00485883
0.00265386
0.000563306
0.00143633
-0.0163716
-0.018045
-0.018473
-0.0160291
-0.015671
0.00684769
0.000457616
0.000826108
-0.0014645
0.00715691
-0.0158399
-0.0156936
-0.0186779
-0.0184974
-0.0171147
0.00310694
-0.00648413
-0.00509706
0.000452008
-0.00558547
-1.85969e-07
0.000322253
-0.000451668
0.00509723
0.00648485
-0.00310723
0.00143326
-0.00730553
-0.00806648
-0.000568611
-0.0103265
0.0103266
7.08277e-08
0.00596829
-0.000162156
0.00325786
2.85323e-05
-0.00255751
-0.00247574
0.000229069
0.00144937
0.000904615
-0.00167995
-0.000611185
0.00309527
0.00480053
7.28998e-05
-3.41873e-07
8.45055e-06
3.25751e-06
7.44882e-07
1.3477e-07
2.35797e-08
-6.26123e-09
-6.62559e-10
8.35422e-09
-3.41529e-09
-2.92177e-08
-1.52562e-09
-8.31682e-09
-1.97107e-09
-2.90373e-09
-7.89231e-09
-2.222e-09
-2.19961e-08
-3.31906e-09
-4.86613e-09
6.80856e-09
-3.99184e-09
-7.025e-09
3.04426e-10
-8.01223e-09
1.57201e-09
-3.0014e-09
-2.38665e-11
3.01048e-09
-1.56032e-09
8.00599e-09
4.92198e-09
-6.84086e-09
2.20557e-08
3.47379e-09
2.26278e-09
7.89924e-09
2.95343e-09
2.02633e-09
-5.89699e-09
-5.16399e-09
-8.35882e-09
2.91601e-08
1.53812e-09
3.31289e-09
8.37261e-09
1.48237e-09
3.6198e-09
6.18704e-09
8.7203e-09
-4.10048e-09
2.85345e-09
5.50124e-09
-1.53623e-08
1.54349e-08
-2.81947e-09
4.08525e-09
-2.3737e-09
-1.9833e-09
-4.1159e-11
1.99712e-09
3.889e-11
2.54285e-11
-4.89881e-09
4.86001e-09
3.32554e-11
5.52954e-10
4.02499e-09
-4.97324e-09
1.64491e-08
3.89593e-09
1.67282e-08
2.11055e-08
2.25355e-08
1.72056e-08
1.77137e-08
2.11704e-08
1.83973e-08
1.59608e-08
2.15514e-08
2.08958e-08
1.62783e-08
6.14491e-09
1.30631e-08
3.68775e-08
-1.50342e-07
6.29051e-07
-1.29688e-06
4.3995e-06
-9.49812e-06
2.66074e-05
-5.84538e-05
0.000137476
-0.000299706
0.000594534
-0.00126042
0.00210552
-0.0042836
0.0058628
0.00595911
0.0050418
0.00480036
0.00669704
0.00778298
-5.55438e-05
-0.00933305
0.00806665
0.00730524
-0.00143298
0.0258479
-0.00368783
-7.29655e-05
2.80415e-07
-8.44766e-06
-3.25723e-06
-7.45816e-07
-1.34447e-07
-2.35552e-08
6.22483e-09
6.29128e-10
-6.36662e-11
-5.20107e-09
9.61524e-09
-4.69165e-09
4.72918e-09
5.26412e-09
5.82109e-11
-9.73149e-09
-1.16195e-09
5.23212e-09
5.86265e-09
-2.88595e-08
6.34609e-09
-1.0083e-10
8.63853e-10
-2.86207e-09
-4.71713e-10
1.69613e-09
3.11916e-09
3.52348e-12
-3.13397e-09
4.85649e-11
4.06471e-09
-7.21424e-09
6.94589e-09
-5.68041e-09
5.66598e-09
7.29085e-09
1.51949e-11
-3.52886e-09
-6.23204e-09
6.31188e-09
-9.43581e-09
3.57016e-09
-1.43764e-09
3.12021e-11
-1.51595e-09
-8.08945e-10
4.62936e-09
-1.4586e-10
1.58428e-11
1.49252e-11
-8.08551e-12
-1.26946e-08
1.27023e-08
1.91688e-08
-4.02606e-09
1.25916e-08
-2.48905e-08
1.02967e-07
-2.0169e-07
2.01632e-07
1.61728e-09
5.05728e-07
-1.32996e-07
-1.86384e-06
3.8734e-06
-9.52644e-07
-1.21458e-05
2.54565e-05
-5.18153e-06
-6.85526e-05
0.00014139
-2.30019e-05
-0.000327409
0.000650912
-8.99213e-05
-0.00128904
0.0024317
-0.000341918
-0.00407011
0.00715961
-0.00150066
-0.0111205
-0.00600472
-0.0143026
0.0143029
-0.00119851
-0.00490078
0.00782469
0.00695584
-3.27116e-07
-0.00465579
0.00465554
0.00504357
-2.16011e-07
-0.00596028
0.00596012
0.00255871
-2.51256e-07
-0.016661
0.0166607
-0.0117372
2.26953e-07
0.0117369
-0.00922336
0.00585303
0.0135
0.00993573
0.0104234
-0.0173314
0.0113252
0.00130759
0.000955908
-7.47175e-05
-0.00255906
-0.000972006
-0.00307296
-0.00989414
0.00660083
0.0169986
0.00765315
0.00774109
-0.00439444
9.12881e-08
0.0043947
0.00307318
-0.0113252
0.017332
-0.0135005
-0.0058529
0.00922365
-0.00130795
-0.000956037
-0.00773944
-0.00765374
-0.0169983
-0.00660093
0.00989408
-0.00803664
-0.00480087
-0.0156451
-0.00442122
0.00923929
0.00231204
-0.00175225
0.00995857
-0.00237711
-0.0030556
-0.000504572
-0.000191235
-6.33143e-05
-1.57489e-05
-3.10763e-06
-5.13803e-07
-7.70953e-08
-2.45802e-08
-1.29024e-07
-1.11343e-07
-9.28553e-08
-1.82361e-07
7.36646e-07
-1.54492e-06
5.14338e-06
-1.11018e-05
3.11526e-05
-6.76184e-05
0.000161225
-0.000345343
0.00069863
-0.00144936
0.00247585
-0.00480058
-0.000271862
-0.00466451
0.0055407
-0.00596845
0.00369271
-3.83346e-08
-0.00369278
0.00190912
-0.00177138
0.00139446
-0.000707449
0.000901489
1.30556e-05
0.000334052
7.01551e-05
-0.000698592
-0.000216339
-0.000470872
-0.000533178
6.94074e-05
0.000245712
0.000268519
-0.000596508
-0.000226312
0.00104243
0.000225436
-0.00187182
0.00344866
0.000256186
-0.00480031
-0.000989172
-0.000826015
-0.00715683
0.00803669
-0.0099588
0.00175198
0.000424676
-0.000317328
-3.42625e-08
-0.000301399
-0.000116805
-4.27699e-05
-1.13992e-05
-2.36047e-06
-4.0521e-07
-6.12214e-08
-1.69538e-09
3.79812e-10
2.74311e-09
9.3638e-09
-8.74212e-10
-6.36171e-09
2.90077e-08
7.93904e-09
5.20161e-08
4.05977e-08
4.04251e-08
5.45093e-08
4.86742e-08
-8.12787e-09
-7.51714e-08
3.33916e-07
1.13509e-08
-8.31822e-07
7.46809e-07
-1.96973e-07
-3.98967e-08
-2.01059e-07
-1.3558e-09
3.73144e-10
-4.14627e-10
-1.47279e-09
1.47893e-08
-1.31775e-08
-7.35478e-08
5.16603e-08
-1.86693e-07
-1.59798e-06
-7.58865e-07
-2.60174e-07
-2.22092e-06
-5.17458e-06
1.3973e-06
2.73016e-07
4.38476e-07
6.4914e-07
5.71716e-07
-1.00268e-06
-8.21382e-07
4.07422e-07
5.368e-07
-3.1602e-08
-1.6663e-07
-1.5163e-06
-1.02414e-05
-1.05594e-05
-5.74971e-05
-2.82602e-05
-1.41462e-05
-6.98816e-05
-0.000128634
1.93241e-05
5.91467e-06
1.10518e-05
2.66305e-05
2.40682e-05
-4.72173e-05
-3.94991e-05
1.35667e-05
2.14746e-05
-6.21944e-06
2.54374e-06
3.62514e-06
-3.18211e-07
3.99025e-06
-7.53663e-06
2.66884e-06
4.43727e-06
-1.12257e-06
4.27019e-07
8.96079e-08
-1.05084e-07
-5.05673e-07
5.19636e-08
2.50348e-07
9.09584e-09
-5.70343e-08
-7.80476e-09
-3.35016e-09
-8.75254e-09
1.61061e-08
6.36994e-08
7.95049e-08
7.72485e-08
7.01656e-09
4.41994e-08
-2.25688e-09
-1.51581e-10
-5.84535e-08
-9.06493e-08
2.18023e-07
4.17966e-07
-1.6875e-06
-1.10348e-05
-5.97345e-05
-5.66504e-05
-0.000261649
-0.000260317
-0.00097712
-0.000501636
-0.000270599
-0.000973756
-0.00182889
1.70668e-05
4.15702e-05
0.000124033
0.000596479
0.000533204
-0.00104234
-0.000904448
0.000216341
0.000470867
-0.000208817
6.02175e-05
0.000109454
-1.45877e-05
0.000123844
-0.00024569
6.32278e-05
0.000137332
-5.14817e-05
1.42508e-05
2.85528e-06
5.45052e-07
-7.48072e-07
-3.87286e-06
3.0863e-07
1.86337e-06
1.32975e-07
1.80083e-09
-1.56841e-06
5.25536e-06
-1.07541e-05
1.07544e-05
-8.99128e-07
-3.20412e-05
5.59077e-07
6.36153e-05
-4.35564e-06
-0.000167313
4.22489e-06
0.000316382
-1.84388e-05
-0.000725864
1.91597e-05
0.00128882
-8.78421e-05
-0.00253159
3.77359e-05
0.00417628
-0.00058296
-0.00670138
-0.000662671
0.00986105
-1.02075e-07
-0.00986086
0.0060037
0.0111209
0.00149999
-0.00715912
-5.44984e-05
0.00406995
0.00034172
-0.00243155
2.73399e-05
0.00128916
8.98301e-05
-0.000650829
1.61179e-05
0.000327429
2.29658e-05
-0.000141386
5.6784e-06
6.8549e-05
5.17534e-06
-2.54549e-05
1.48594e-06
1.21447e-05
9.52476e-07
-3.25985e-08
-1.31376e-06
-1.79401e-07
-1.57067e-08
8.3288e-09
-6.68883e-12
2.96221e-11
-3.13289e-10
-2.6023e-10
3.63218e-10
1.08823e-08
6.47779e-08
6.12096e-07
4.58879e-08
-1.21738e-07
-7.58659e-07
0.00454956
-0.00455007
-0.0061852
-0.00668915
-0.00103101
-0.00311432
-0.0114536
0.026133
-0.000565043
0.0010281
0.000104915
-0.000445182
0.000662681
0.00670177
0.00058265
-0.00417612
-5.53602e-08
-3.9588e-08
-4.67052e-08
8.78101e-05
-0.0012888
0.00253152
-3.774e-05
-0.000229972
-7.98258e-05
-1.92041e-05
0.000725864
1.84114e-05
-0.00031638
3.00003e-09
3.83723e-09
-1.10036e-09
-8.11066e-10
8.96259e-07
3.204e-05
-6.36115e-05
0.000167321
-4.22792e-06
-2.1108e-05
-4.40708e-06
-9.906e-10
-2.69145e-10
-3.92109e-11
-6.53475e-11
-1.78819e-09
7.64659e-07
-5.59734e-11
-7.64873e-07
-2.03379e-09
1.56826e-06
-1.27481e-07
-5.25648e-06
3.22675e-08
7.47213e-07
-1.92621e-10
1.27033e-07
-3.76991e-10
1.04877e-07
8.69922e-09
5.70559e-08
-9.07747e-09
-2.50435e-07
3.26206e-09
-1.0305e-07
1.2606e-08
2.48592e-08
5.77378e-13
-1.2607e-08
4.01152e-09
-1.90385e-08
-6.07859e-09
-1.26183e-08
-1.70788e-09
-2.84832e-09
-2.27356e-09
1.44456e-10
1.49464e-09
-4.62763e-09
8.0609e-10
-5.02902e-09
1.64102e-09
1.76487e-11
-1.61111e-09
-8.22008e-10
8.32836e-09
5.04964e-09
1.42173e-09
2.27532e-09
-4.01461e-10
2.82552e-09
1.70079e-09
1.42002e-09
-1.57765e-09
-9.89341e-10
5.17641e-09
4.96359e-09
6.1967e-11
1.93579e-09
1.16189e-08
-7.23254e-09
2.39318e-08
1.1582e-08
2.21559e-11
8.03228e-11
1.44644e-11
1.19675e-11
6.99366e-11
1.15428e-11
-1.28519e-11
-3.24303e-10
-1.13256e-09
-5.45427e-10
5.85831e-09
2.20312e-08
-2.96393e-08
-1.01831e-07
5.04925e-08
-4.91978e-07
-0.00782529
0.00490101
-0.00444781
0.0072169
-0.00721711
0.00444754
-0.0141151
0.00148643
-0.00565155
0.0119997
0.00309962
-0.000124643
0.0109477
-0.00807383
-0.00709861
-0.0169387
-0.00615675
-0.00843756
-0.00970878
-0.0064234
0.000944357
0.00607619
0.00194298
-1.68936e-06
2.69355e-07
-0.00194224
0.0141148
0.00565115
-0.00148665
0.00375631
-0.00309988
-0.010948
0.000124441
0.00111054
-0.00231226
-0.00923942
0.00442056
0.0156446
0.0048009
0.00676081
-0.00589789
-0.00607755
7.153e-07
-0.00173545
-0.00375636
0.000552282
-0.000166088
-0.00657828
0.00589767
0.00147762
-0.00676077
0.000218443
7.44667e-05
0.000971744
-0.000424692
0.000317244
0.000989143
-0.000593729
-0.00324769
-0.00100426
0.000290263
0.00214101
0.00187205
-0.00344865
-0.0030949
0.000611244
0.00167992
-0.000225464
0.000256153
-0.00102622
-0.000271327
0.000112924
3.86528e-05
1.03286e-05
2.25645e-06
2.39307e-06
-8.25894e-06
-1.9784e-06
1.04684e-06
5.22025e-06
-1.80389e-08
-6.03458e-06
1.63149e-05
-3.68062e-07
-3.78221e-05
3.14771e-05
-1.09896e-05
-2.54612e-06
-6.60106e-05
-2.79135e-06
-0.000202102
0.000162564
-1.49774e-05
-0.000334006
-1.30405e-05
-0.000901461
0.000707385
-7.01513e-05
-0.00139438
-2.83737e-05
-0.00325795
0.0025573
-0.000229212
-0.000146766
-0.00323685
-0.0115763
-0.0116208
-0.0169102
-0.000563968
0.0232973
-0.0016265
-0.00191251
-0.00116599
-0.000324426
-8.55872e-05
-1.90562e-05
-3.57646e-06
-5.51176e-07
-8.14973e-07
8.44893e-07
4.85323e-07
7.0899e-06
-1.15938e-10
-7.09092e-06
1.71593e-05
-3.82555e-09
-4.38135e-05
4.38069e-05
-1.71605e-05
-1.14303e-09
-1.38175e-10
8.01859e-12
1.69835e-08
6.15446e-08
6.20898e-09
9.36941e-08
2.16548e-11
-9.37577e-08
3.39902e-07
-1.04767e-10
-9.99432e-07
9.99351e-07
-3.39848e-07
2.21759e-08
1.98224e-08
-7.14541e-09
7.20257e-09
-2.33568e-09
-2.16687e-09
-1.97929e-08
7.5194e-08
8.14544e-09
-4.87532e-08
1.96956e-07
-1.1442e-08
-7.46899e-07
8.31952e-07
-3.33855e-07
-5.98511e-09
-1.6962e-08
-1.61214e-08
7.7149e-08
-5.18131e-08
1.50525e-07
2.47563e-08
-6.49064e-07
-4.26767e-07
1.00269e-06
3.18208e-07
-3.62538e-06
-2.54413e-06
6.22219e-06
1.11017e-05
2.54738e-06
-3.14811e-05
3.78231e-05
3.6946e-07
1.09914e-05
-5.22145e-06
6.03547e-06
1.77843e-08
1.56248e-06
3.64674e-07
-5.14348e-06
1.54513e-06
8.21712e-07
-5.36875e-07
-4.07188e-07
-7.3654e-07
3.98904e-08
1.82359e-07
9.28451e-08
3.16632e-08
-5.71713e-07
1.11396e-07
1.29195e-07
-5.20052e-08
-6.35614e-08
-4.05417e-08
4.93369e-08
-4.03623e-08
-6.14876e-08
-5.44444e-08
5.01879e-08
-1.71855e-08
-1.76901e-08
-6.98073e-09
-7.71956e-08
-7.94815e-08
-5.16353e-08
-1.47751e-08
-8.3245e-09
1.56705e-08
1.79364e-07
1.319e-08
2.60776e-07
1.31299e-06
7.84264e-06
2.22397e-06
1.41576e-05
3.74233e-05
-3.74506e-05
-7.84509e-06
-5.62763e-07
-0.00013468
0.000134578
6.99019e-05
0.000270753
0.000335234
-0.000335565
-0.000558317
0.000558642
0.000974763
0.00618584
0.00668907
0.00103338
-0.00586288
0.000201297
-0.00595908
-0.00102817
-0.00045773
-0.0232976
0.00237704
0.00305554
0.00050444
0.000191195
6.32802e-05
1.57446e-05
3.10641e-06
5.14004e-07
-3.08465e-07
1.29743e-06
2.62643e-07
-4.43742e-06
-2.66905e-06
7.53648e-06
2.38577e-06
-2.14745e-05
-1.35607e-05
3.95129e-05
6.7623e-05
1.49706e-05
-0.000162587
0.000202106
2.81039e-06
6.60282e-05
-9.28144e-05
-2.62629e-06
9.86366e-05
-1.0063e-08
-0.000231539
0.00023152
-9.86514e-05
2.62265e-06
9.28327e-05
4.44217e-06
4.92357e-10
3.25033e-10
5.48146e-11
4.70964e-11
-2.221e-08
1.64045e-10
-1.64385e-08
4.86693e-09
1.15014e-09
-8.7507e-09
-6.17468e-09
-3.64718e-09
-2.40154e-08
-1.56935e-09
-8.34697e-09
-2.25279e-08
-2.1164e-08
-1.16998e-08
-1.67326e-08
-3.90919e-09
2.26151e-09
1.38906e-09
-2.8e-10
4.45827e-10
-2.15022e-08
-1.59004e-08
-7.86927e-09
-1.83768e-08
-2.10468e-08
4.6061e-08
-3.6856e-08
7.94963e-09
-1.30822e-08
-2.08718e-08
-1.62407e-08
1.52229e-09
1.86927e-07
7.36018e-08
-2.72771e-07
-6.28961e-07
-4.38467e-07
1.12326e-06
1.59845e-06
7.62261e-07
-1.39565e-06
-4.39927e-06
9.50114e-06
1.97997e-06
-2.66288e-05
-1.42487e-05
5.14965e-05
4.7219e-05
1.45873e-05
-0.000109472
-6.02193e-05
0.000208878
0.000345339
-0.000161215
-3.86504e-05
-4.17419e-05
-0.000137318
-6.32164e-05
-0.000123839
1.13954e-05
2.35916e-06
4.05032e-07
6.12155e-08
-8.96659e-08
-5.45319e-07
-2.85635e-06
4.4035e-06
2.10966e-05
-1.25526e-05
1.25466e-05
4.42039e-05
0.000226277
-0.0011514
-0.000186922
0.000115191
0.000630267
-0.00395521
-0.000201579
0.000171714
5.8362e-05
1.57051e-05
3.43698e-06
6.35146e-07
1.01899e-07
7.40386e-08
2.47826e-06
-2.57527e-06
2.57555e-06
-2.47778e-06
-7.40678e-08
-1.01811e-07
-6.35377e-07
-4.82485e-07
-1.63129e-05
-8.45464e-07
-1.40275e-07
5.8683e-08
5.52055e-07
3.57863e-06
-4.44176e-06
-4.18807e-06
-1.04541e-06
-2.25626e-06
-2.39317e-06
8.26133e-06
1.05653e-05
5.19987e-06
-5.90369e-06
-2.66072e-05
5.84675e-05
1.22028e-05
-0.000137475
0.00029977
5.81062e-05
-0.000594517
0.0012605
0.000186837
-0.00214123
-0.000630419
0.00395547
0.00428385
5.45096e-05
-0.00210543
-2.7294e-05
-1.7051e-05
-4.13601e-05
-1.92686e-05
2.83653e-05
5.7521e-05
0.000260419
0.000129148
0.000977146
0.000503808
0.00311479
0.00182697
0.0114532
-0.0261329
-0.000563369
-0.0014351
0.0097084
0.00615638
0.0169389
0.0070988
0.00807379
-0.00684757
0.000565335
0.000563655
-0.0050417
0.000301312
0.000116767
4.27511e-05
-1.0488e-08
-2.23757e-08
-0.000115209
0.000229944
7.97985e-05
-4.42109e-05
-5.83945e-05
-7.31028e-09
-3.61157e-09
-1.57098e-05
-3.43963e-06
-1.20353e-05
-0.000446695
0.000478851
-2.20362e-08
-0.00102508
0.00102504
-0.000478895
1.20266e-05
0.000446745
1.97098e-05
1.19306e-05
-2.83842e-05
4.1907e-06
-5.31359e-06
8.18988e-06
-0.00012919
7.18701e-05
0.00177135
-0.0019091
4.6955e-05
-2.31056e-08
-1.06252e-08
-8.53577e-08
-7.71912e-08
-0.00504414
0.00069633
-0.000105006
0.000445033
-0.000551979
-0.00695685
0.00173548
0.00016557
0.00657793
0.00642268
-0.0119994
0.00843663
-0.00094447
-0.00147818
-2.94761e-07
0.00368781
0.00558531
-0.000389769
3.66919e-07
0.000213897
0.000162158
0.000389889
-0.00456215
-0.00750757
-0.00694187
-3.6362e-09
-0.000322263
5.85989e-07
0.000568559
1.66103e-07
1.8873e-08
1.3124e-09
-1.97087e-05
1.90714e-05
8.56131e-05
-7.18926e-05
-4.70345e-05
-8.14606e-06
-1.19128e-05
5.97616e-05
1.10392e-05
1.68889e-06
2.01092e-07
1.66825e-07
1.51713e-06
1.02451e-05
-1.10475e-05
-2.40666e-05
5.66666e-05
0.000261717
-0.000123987
0.00115162
-0.000289906
-0.000256053
-0.000112838
0.000271457
0.00102664
0.00100452
0.00324822
0.0116205
0.00059369
0.00323657
0.011576
0.00162608
0.000146742
-0.000214035
0.000324367
0.000517518
0.00191278
0.000129364
-1.03286e-05
-3.11473e-05
-4.17984e-07
-2.17897e-07
-4.41771e-08
9.07614e-08
8.15864e-07
5.32562e-06
2.84041e-05
-0.000171724
-0.000516976
-1.61136e-05
-5.67848e-06
-1.48599e-06
-3.99039e-06
1.40111e-07
-1.56201e-06
-3.64321e-07
9.49584e-10
1.60358e-09
-1.43796e-09
-1.94154e-09
1.01916e-11
-5.11076e-11
-4.99904e-09
-5.17305e-09
8.27655e-10
7.22135e-09
-1.16334e-08
-5.53708e-09
-3.97113e-09
2.40865e-09
2.17012e-09
2.36714e-09
-1.112e-09
4.1755e-05
-0.00026843
-5.81209e-05
-0.00025623
-0.00111069
-0.000696422
-0.00021813
1.09675e-09
-6.23947e-11
4.34041e-06
2.07308e-09
1.01034e-10
-1.64387e-08
-1.21994e-05
-6.93798e-05
-2.62698e-07
-2.38472e-06
-4.60327e-08
-4.92581e-08
-5.01501e-08
-0.0104225
-0.00993557
0.00199667
-2.74002e-07
-0.00199615
0.0171146
0.00694159
2.17395e-09
1.55883e-10
5.85092e-08
-1.13949e-08
1.96841e-07
-3.33892e-07
8.31749e-07
-7.46797e-07
3.98321e-08
1.82216e-07
-5.44747e-08
5.01213e-08
-2.11919e-08
-2.24923e-08
-1.72285e-08
-1.77617e-08
-2.11426e-08
-1.84442e-08
-1.60034e-08
-2.15599e-08
-2.09527e-08
-1.63823e-08
-6.12229e-09
7.82053e-09
-1.26574e-08
-1.90933e-08
4.0441e-09
-1.7015e-09
-1.2598e-08
2.06687e-11
1.26262e-08
-4.06164e-09
1.90358e-08
6.09164e-09
1.26763e-08
-7.89812e-09
3.67705e-08
1.30349e-08
1.63164e-08
2.08329e-08
2.1463e-08
1.59337e-08
1.84403e-08
7.94786e-09
4.05893e-08
4.04238e-08
5.44951e-08
7.03935e-09
1.77509e-08
1.71951e-08
2.2481e-08
2.12279e-08
1.67227e-08
1.17466e-08
3.94324e-09
2.15918e-09
1.9757e-08
9.36739e-08
3.15154e-11
7.21421e-09
-1.97432e-08
-2.14965e-09
-3.94482e-09
-1.1709e-08
-4.87191e-08
8.07802e-09
7.51492e-08
-6.05141e-09
3.39823e-07
-3.39899e-07
-9.63451e-11
-9.99373e-07
-7.45127e-08
-2.47795e-06
1.76219e-08
1.56189e-06
1.5444e-06
3.64233e-07
-5.14341e-06
-3.62548e-06
8.21326e-07
-4.07457e-07
-5.36868e-07
-7.36711e-07
2.35283e-08
1.34358e-07
7.44867e-07
3.257e-06
8.48699e-06
-2.17608e-07
7.3073e-05
0.00368792
-0.00307283
-0.00989421
0.00660061
0.00803638
0.0048005
0.0156442
0.0044205
0.0070987
0.0169389
0.0061565
0.00970828
0.00843674
0.00565104
-0.0119999
0.0037561
-0.000552567
-0.00148663
0.014115
-0.00444698
0.00721676
-1.75511e-07
-0.00721753
0.00444738
-0.0141143
-0.0056507
0.0120002
-0.00970747
-0.00843618
-0.00615593
-0.0169386
-0.00709811
-0.0044203
0.00923978
0.00995868
0.00989443
-0.00803623
-0.00480051
-0.00660077
-0.0169979
-0.00765337
-0.00993537
-0.013501
-0.0058529
0.00922384
-0.0117372
-0.00130746
0.0166608
-0.0166609
0.0117371
-0.00922385
0.00585256
0.0135001
0.00993564
0.0104232
0.00765306
0.0169974
0.0186778
0.0184966
-0.00310737
0.0171143
0.00648476
0.0069413
0.00509683
0.000322334
9.5965e-07
-0.000321956
-7.73292e-08
0.00558553
-0.00558531
0.000451914
-0.00509688
-0.00694118
-0.00648492
-0.0171144
-0.0184972
-0.0186774
-0.0156931
-0.0158368
-0.0169053
-0.0156718
-0.0160282
-0.0184723
-0.0180434
-0.0163674
-0.00572416
0.00143632
0.000563647
0.00586309
-0.00428412
0.00210535
-0.00126049
0.000594579
-0.000299757
0.000137478
-5.84657e-05
2.66097e-05
-9.49942e-06
4.39924e-06
-1.29728e-06
6.28955e-07
-1.50446e-07
-1.29075e-07
-1.11353e-07
-9.28158e-08
-1.82315e-07
-1.96855e-07
1.15371e-08
3.33988e-07
-7.52126e-08
-8.17111e-09
4.87803e-08
-5.01062e-08
6.29082e-09
-2.34556e-08
-1.34706e-07
-7.44773e-07
-3.2578e-06
-8.45184e-06
2.14505e-07
-7.30308e-05
-0.00368786
0.00307285
0.000971962
0.00255852
-0.000424776
0.00595999
-0.00595993
-0.00255865
-0.000971753
0.000424905
0.00175214
-0.0099588
-0.00923929
0.00807333
-0.0109477
-0.00309951
0.000124604
0.00111075
-0.00231189
0.00237714
0.00305555
-5.56143e-08
-0.00305528
0.00309976
-0.003756
0.0069561
0.000552028
0.00782465
-0.00782549
-0.00695673
-3.50301e-07
0.0046557
0.00504353
-0.00504399
0.000696275
-0.00465598
0.000165637
2.00852e-07
0.00607614
0.000944624
-0.00642226
0.00194313
-5.01424e-07
-6.51361e-07
-6.24236e-08
0.00600443
-0.00485874
-0.0168093
0.00331084
-0.013691
0.0143025
-0.00986055
0.00670129
-0.00670151
-0.000582793
-0.00406982
-0.000341681
0.00243148
-0.00128915
-8.97851e-05
0.000650817
-0.000327436
-2.29518e-05
0.000141375
-6.85548e-05
-5.17188e-06
2.5455e-05
-1.21456e-05
-9.51923e-07
3.87296e-06
-1.86357e-06
-1.32874e-07
5.05724e-07
-2.50397e-07
-9.0491e-09
5.70092e-08
1.2575e-08
2.48961e-08
-2.48909e-08
1.68355e-09
2.85727e-09
-5.66614e-09
-7.26781e-09
-3.19452e-11
3.50534e-09
-3.58441e-09
-6.28642e-09
-4.50043e-11
4.66641e-09
-4.77854e-09
-5.29598e-09
-2.37237e-11
1.53682e-08
-1.54017e-08
2.86121e-09
-9.59799e-12
-1.98991e-09
1.99754e-09
-1.18978e-09
8.69817e-09
6.19149e-09
3.7139e-09
1.53088e-09
8.44456e-09
3.42057e-09
-8.3146e-09
7.2429e-10
1.16088e-08
-7.23225e-09
2.40355e-08
4.95932e-09
5.21033e-09
1.54706e-09
8.37218e-09
2.13918e-09
-5.90481e-09
4.04778e-10
1.16877e-09
-5.1678e-09
2.92421e-08
-1.65913e-09
-3.14782e-09
-7.71555e-08
-5.1421e-07
-3.1083e-06
-1.57506e-05
-6.33083e-05
-0.000191218
-0.000504388
-0.000201154
0.00595859
0.00504221
0.00480009
0.00669728
-0.0048006
0.00247591
-0.0014494
0.000698648
-0.000345349
0.000161226
-6.76293e-05
3.11501e-05
-1.11024e-05
5.14339e-06
-1.54508e-06
7.36647e-07
-3.98498e-08
7.46902e-07
-8.31657e-07
9.99315e-07
-2.5752e-06
6.34669e-11
2.57484e-06
-7.09016e-06
6.03348e-06
-5.22144e-06
1.09883e-05
-1.63153e-05
3.644e-07
-3.14824e-05
2.5486e-06
1.11001e-05
-2.54372e-06
6.21946e-06
7.53355e-06
2.38598e-06
-2.40669e-05
-2.66286e-05
8.25821e-06
-2.66926e-06
-3.99027e-06
3.18184e-07
1.00229e-06
-5.71733e-07
3.18291e-08
9.27928e-08
-6.15585e-08
-4.03876e-08
-6.9704e-09
-2.92906e-08
-3.33294e-09
-8.40256e-09
-1.49733e-09
-3.65979e-09
-6.20664e-09
-8.71187e-09
1.17934e-09
-2.29608e-09
-2.82724e-09
4.1888e-09
-5.42779e-09
-1.16506e-08
2.05699e-11
-6.19138e-10
7.29164e-09
8.41384e-09
5.20223e-09
-1.14125e-09
-9.75595e-09
5.20134e-09
4.28154e-12
1.25671e-11
1.19038e-10
6.30033e-10
2.31221e-09
8.4015e-09
1.99673e-08
2.36951e-08
1.46956e-08
-2.00914e-07
1.48222e-07
0.00439424
0.000218787
-0.00676032
0.00147818
-0.0156442
-0.0065776
0.0109477
-0.000124628
-0.0011106
-0.000696476
0.000104961
0.00102826
0.000457723
0.000826386
-0.0014646
-0.00143318
0.00730517
0.00806665
-0.00933299
-5.5509e-05
0.00554052
-0.00466437
0.00778295
-0.000271859
-0.00323653
-0.0115764
-0.0116198
-0.0114519
-0.00668923
-0.00618497
-0.000974747
-0.00182789
-0.00103298
-0.00311495
-0.000976972
-0.000503679
-0.000270705
-6.99261e-05
-0.00012906
4.1375e-05
1.70129e-05
0.000290101
-0.00395527
-0.00344878
0.00187197
0.00167975
0.000611248
-0.00309486
-0.000256623
-0.000301384
-0.00237696
0.0023122
-0.00175203
7.44927e-05
0.00589787
-0.000166105
-0.00173572
0.00148689
-0.00490102
-0.00119887
-0.0045496
-1.18939e-07
1.81521e-07
7.07794e-08
2.31358e-07
8.70702e-09
-5.05155e-09
-2.5961e-09
-1.0287e-09
-2.58072e-10
-1.15076e-11
-4.58239e-11
-8.36254e-09
8.32807e-09
1.47725e-08
-1.32523e-08
-2.60835e-07
-2.22433e-06
-1.41587e-05
-2.83547e-05
1.92707e-05
-0.000260309
-5.75031e-05
-1.05607e-05
-5.19445e-06
5.90615e-06
1.10549e-05
-5.14906e-05
-4.72217e-05
2.40671e-05
2.14723e-05
1.35624e-05
-3.95049e-05
0.000109446
6.02145e-05
-0.000208834
0.000470831
0.000216333
-0.000904432
-0.00022552
-0.00104246
0.00053321
0.000226281
-0.00115143
0.00214094
0.000630272
0.000115181
-0.000116777
-4.27709e-05
-6.94131e-05
-0.000245714
0.000123839
6.32081e-05
-0.000268466
0.000596503
-5.81353e-05
0.000124061
-0.00100422
-0.00324776
-0.000563135
-0.000564697
0.00684823
-0.0080731
0.0261332
-0.000593784
0.00715697
-0.00162607
-0.00750665
-0.00456212
-0.00116617
-0.00191295
-0.000146605
0.000256224
-0.00102618
-0.000271324
-0.000261621
-5.66343e-05
-1.02403e-05
-1.51625e-06
-1.59766e-06
-7.61449e-07
1.3956e-06
2.39356e-06
-8.25921e-06
-7.53649e-06
3.9907e-06
3.62507e-06
2.54337e-06
-6.22044e-06
-2.38566e-06
-2.36017e-06
-1.13957e-05
-1.45916e-05
2.85391e-06
1.42496e-05
2.6628e-05
-1.9794e-06
-4.40608e-06
6.85524e-05
5.66973e-06
-0.000141401
2.29745e-05
0.000327439
1.61172e-05
-0.00065092
8.98821e-05
0.00128911
2.73174e-05
-0.00243164
0.000341803
0.00406987
-5.45715e-05
-0.00715927
0.00150073
0.0111205
0.00265393
0.000662615
-0.000445099
0.000445029
-0.0111209
-0.00150027
0.00715918
-0.000662779
0.00986051
-0.0060045
-0.0143029
-1.52136e-07
0.0136902
-0.00331098
0.0168101
0.00572471
0.00485889
0.00119871
0.00490113
0.00173535
-0.00194323
-0.00607639
0.00642324
-0.00094455
0.00657781
-0.00589745
-4.10412e-07
-5.3002e-08
-3.03387e-08
3.59984e-10
-2.88838e-09
-1.6849e-09
0.000583081
-0.00417604
0.00253144
-0.00128883
0.000725912
-0.000725936
-1.84319e-05
0.000316387
4.23496e-06
-0.000167314
-4.3484e-06
6.36107e-05
5.64273e-07
-3.20436e-05
-8.95968e-07
1.07544e-05
3.32572e-08
-5.25617e-06
-1.26994e-07
1.56819e-06
-1.83138e-09
-7.64873e-07
1.887e-09
2.01665e-07
3.29751e-09
-1.03044e-07
8.2417e-12
1.02944e-07
-1.27053e-08
-5.70022e-08
9.06385e-09
2.50383e-07
5.18498e-08
-5.0576e-07
1.32856e-07
1.86346e-06
3.08216e-07
-3.87371e-06
9.51598e-07
1.21447e-05
1.48474e-06
-2.54584e-05
5.17473e-06
-5.63342e-07
3.20386e-05
-1.89454e-09
-1.07565e-05
5.2559e-06
-1.56842e-06
7.64804e-07
-1.16427e-10
-2.01766e-07
-3.31873e-09
-8.7926e-09
-1.05052e-07
1.86368e-09
-1.79272e-07
-1.31432e-06
-7.8511e-06
-3.74538e-05
-0.000134607
-0.000335338
-0.000558188
0.000558186
0.00454947
0.00618512
0.000974673
0.000335025
0.00417594
3.77182e-05
-0.00253153
-8.7877e-05
0.00128872
1.92195e-05
7.98089e-05
4.20147e-08
8.80045e-05
5.32409e-09
-2.76088e-09
1.84654e-05
-0.000316402
0.000167307
-6.36207e-05
4.34904e-06
-5.06579e-09
-5.74216e-09
-1.06145e-09
8.96164e-07
-1.6177e-10
1.27151e-07
-3.55274e-10
-2.88115e-11
-1.80914e-09
-4.22858e-11
-1.19532e-11
5.72934e-09
-2.75601e-09
1.56455e-09
-2.9853e-09
3.0267e-09
-1.5968e-09
8.0271e-09
-3.5595e-10
4.91974e-09
-6.87408e-09
8.90664e-11
-8.3499e-10
-6.39477e-09
2.90426e-08
2.98298e-09
7.85888e-09
2.191e-09
3.38951e-09
2.20199e-08
4.62942e-09
-8.31251e-10
-1.51013e-09
-1.42808e-10
-1.878e-11
5.82028e-11
1.63331e-10
-8.01238e-09
-4.93238e-09
3.12751e-10
-4.02419e-09
-3.04213e-11
6.33919e-09
7.77819e-10
-2.89772e-09
-4.22854e-10
5.89199e-09
-2.06513e-09
-8.38396e-09
-1.50034e-09
-5.18292e-09
1.61578e-09
1.51892e-09
-1.71649e-11
2.29624e-09
4.04515e-09
6.98732e-09
1.41595e-09
5.04063e-09
-1.61401e-09
-8.03509e-10
-2.02287e-11
-1.44785e-09
-2.26561e-09
7.24939e-09
-6.98457e-09
8.71664e-09
-3.63692e-11
-3.49074e-11
-2.19381e-10
7.31354e-10
-6.88914e-09
2.06116e-08
-0.000229901
-3.76234e-05
0.000229957
0.000504607
5.44559e-05
-0.00586309
0.00020146
0.00395525
-0.00063033
-0.00187211
0.000225388
0.000904406
-0.000216287
-0.000470893
-0.000698597
7.01027e-05
0.000334003
-0.000446703
1.3039e-05
-0.000707483
0.00139431
-0.00177129
2.85407e-05
-0.00255759
0.000229141
0.00144925
-0.00247568
-0.00168016
0.00309491
-0.000611094
0.00480032
0.00027212
0.00466447
-0.00554011
5.56132e-05
-0.00778339
-0.00669705
-0.00480053
0.000256502
0.00344839
-0.00504192
-0.00595907
0.00056496
-0.00102825
-0.000457776
-0.023298
-0.000826094
-0.000989109
0.00146432
-0.0258482
0.00143329
-0.0080667
-0.00730545
0.00456176
3.94348e-07
0.000389825
0.00056849
0.0103263
2.32009e-08
0.00596819
-0.00596807
0.000162123
-0.00325801
-2.84512e-05
0.00177142
-0.00139429
0.00255722
-0.000229175
0.000707373
-1.30795e-05
0.000446724
-0.000334012
-7.01377e-05
0.000162565
-2.80878e-06
9.28256e-05
-6.60176e-05
-1.49804e-05
-5.97314e-05
-1.1034e-05
-1.68785e-06
-2.00928e-07
-1.66663e-07
-1.868e-07
-7.35307e-08
2.72874e-07
4.38586e-07
-1.12279e-06
-1.00275e-06
5.71759e-07
5.36819e-07
4.07331e-07
-8.21549e-07
-3.18219e-07
-4.05218e-07
-6.12212e-08
-3.16697e-08
1.61244e-08
6.36743e-08
5.20029e-08
-4.61209e-08
-4.463e-10
-1.49718e-09
5.16033e-08
7.94713e-08
3.38638e-10
2.10922e-08
-4.92274e-08
7.72219e-08
4.18118e-07
2.25704e-06
1.03319e-05
3.86585e-05
0.0001129
8.16339e-06
-0.000517403
-0.000324237
-8.55987e-05
-0.000129319
1.19073e-05
1.97061e-05
7.18242e-05
-0.000901515
0.00102505
1.37056e-08
0.000478865
-0.000478843
1.20437e-05
0.00023152
2.2309e-10
9.86462e-05
-9.86437e-05
2.63153e-06
-3.78204e-05
-3.68623e-07
1.63135e-05
-1.09901e-05
3.14764e-05
-2.54804e-06
4.18512e-06
-2.83933e-05
-1.90642e-05
-3.5774e-06
-5.32361e-06
1.04653e-06
8.45266e-07
-6.0353e-06
-1.81359e-08
2.47787e-06
-1.56215e-06
5.22038e-06
-3.64185e-07
2.18017e-07
-8.15266e-07
-5.51714e-07
-5.84709e-08
-9.06484e-08
4.42116e-08
-1.40694e-09
-2.15945e-09
-1.16215e-10
1.64537e-08
-4.86951e-09
4.94956e-09
-7.3803e-11
-4.85284e-09
4.98665e-09
-1.64631e-08
-2.32053e-09
-3.98544e-09
-5.64467e-12
-2.77691e-11
1.40214e-07
7.38001e-08
1.01919e-07
8.95827e-08
4.26836e-07
6.49093e-07
-2.47137e-08
5.44661e-07
2.66937e-06
4.43717e-06
-2.62636e-07
-7.47991e-07
-3.31159e-08
7.47215e-07
4.40427e-06
2.11047e-05
6.33179e-05
0.000191268
-2.72922e-05
-0.00210551
0.000186865
0.00115131
-0.000226311
-0.000533216
6.94224e-05
0.000208819
-6.02082e-05
-0.000109469
-0.000161198
1.49825e-05
6.60158e-05
-9.28232e-05
2.80302e-06
-0.000162585
0.000202088
-1.20407e-05
-0.000231502
-1.96974e-05
-2.33101e-09
2.38155e-08
-1.56421e-07
0.000214036
-0.000213794
-0.000389637
-0.00056838
0.00933288
-0.0103262
-0.000317238
-0.000104975
-0.000115153
0.000301513
0.000116878
-1.51094e-08
4.42071e-05
-7.97927e-05
-1.9179e-05
-2.1104e-05
-4.2242e-06
1.25451e-05
7.08311e-09
6.62197e-10
3.16245e-10
-1.38058e-11
-2.07062e-11
-2.11645e-11
-1.22786e-11
3.08154e-09
7.70753e-08
5.14105e-07
3.10687e-06
1.57456e-05
-5.67655e-06
-0.000137469
1.22037e-05
5.14839e-05
-1.425e-05
4.72072e-05
1.4588e-05
3.94995e-05
-1.35616e-05
-2.14764e-05
-3.11489e-05
6.76131e-05
-1.03355e-05
-1.10534e-05
-5.91617e-06
1.41463e-05
6.98688e-05
0.000270544
0.000134641
3.74525e-05
7.8525e-06
1.31454e-06
2.22296e-06
2.60513e-07
1.79359e-07
1.56481e-08
1.31818e-08
-1.48143e-08
1.45161e-09
-5.16475e-08
1.50399e-07
2.47389e-08
1.29112e-07
-6.37354e-08
-4.0581e-08
4.93007e-08
1.65295e-09
6.11984e-08
4.05264e-07
2.35959e-06
1.13972e-05
4.27827e-05
-4.41928e-05
-1.25514e-05