/*--------------------------------*- C++ -*----------------------------------*\
| =========                 |                                                 |
| \\      /  F ield         | OpenFOAM: The Open Source CFD Toolbox           |
|  \\    /   O peration     | Version:  2306                                  |
|   \\  /    A nd           | Website:  www.openfoam.com                      |
|    \\/     M anipulation  |                                                 |
\*---------------------------------------------------------------------------*/
FoamFile
{
    version     2.0;
    format      ascii;
    arch        "LSB;label=32;scalar=64";
    class       volScalarField;
    location    "0.3";
    object      gradTx;
}
// * * * * * * * * * * * * * * * * * * * * * * * * * * * * * * * * * * * * * //

dimensions      [0 -1 0 1 0 0 0];

internalField   nonuniform List<scalar> 
2658
(
0.00769755
0.0116962
0.00321942
0.000268807
-0.00787792
-0.00657284
0.00466728
0.0047065
5.56956e-05
0.00932521
-0.008035
-0.0074777
0.00656424
0.00694752
0.00506068
0.000137878
-0.000163168
-0.000444768
-0.00534618
-0.00744656
-0.00784666
-0.018146
-0.0203364
0.0138639
-0.00538197
-0.00868036
-0.0184905
-0.00217521
-0.0135007
-0.0153871
-0.0135006
-0.0184909
-0.00868062
-0.0203371
-0.00538137
0.0138638
-0.00435777
0.00321171
-0.018144
-0.00784895
-0.00744676
-0.00534579
-0.000445854
0.000625391
-0.00590889
0.00557473
-0.00803473
-0.000432328
0.000136138
0.00506056
0.00694722
0.00656353
0.0173119
-0.00315976
0.0186564
0.0157551
-0.00722503
-0.000722224
-0.0234216
0.015704
-0.00722449
0.0157553
0.0186558
-0.00315913
0.00145132
-0.0258196
0.00137027
-0.00102744
-0.00495699
-0.00495752
0.00026807
0.00326105
-0.000636872
-0.00241538
0.000217044
-0.00260354
0.00323326
2.69804e-05
-0.00177819
0.00191551
-0.0037644
-0.000192588
0.00600135
-0.00554461
5.77001e-05
-1.08535e-05
3.63538e-06
1.5812e-06
2.79431e-07
2.60296e-08
1.07352e-09
-6.22646e-09
-8.60642e-10
-1.89986e-08
7.43551e-09
-5.31552e-09
-1.00099e-08
-2.2908e-10
8.94991e-09
-8.10462e-09
3.35252e-09
1.04309e-08
1.95909e-08
4.45099e-09
5.84066e-09
-1.62846e-08
-3.67127e-10
1.04295e-09
-1.38591e-09
4.48251e-09
7.79332e-09
3.10147e-09
5.15048e-09
3.07188e-09
7.70886e-09
4.50319e-09
5.88023e-09
-1.62452e-08
1.96262e-08
4.52922e-09
1.04474e-08
3.36878e-09
-8.07866e-09
8.92702e-09
-2.18824e-08
1.89248e-08
-1.8975e-08
-5.29352e-09
-9.9944e-09
7.511e-09
-4.36152e-09
-1.2159e-08
-5.5805e-09
-6.58366e-09
-5.82564e-09
-4.35169e-09
-8.30748e-09
-4.33592e-08
1.15468e-08
1.14842e-08
-8.30406e-09
-4.39168e-09
-7.63148e-10
-5.86659e-09
-5.83838e-09
-5.86283e-09
-3.23321e-09
-8.7102e-09
-1.27211e-08
-1.32326e-08
-9.60757e-09
-1.19875e-08
-1.25143e-08
-1.27898e-08
-1.58445e-08
-2.38943e-08
-1.79085e-08
-9.35247e-09
-1.1579e-08
-1.01797e-08
1.03849e-09
-5.62846e-10
-3.4558e-09
6.38865e-09
9.49477e-09
6.64205e-09
1.38956e-08
2.4631e-08
3.04631e-10
6.99724e-08
-2.57736e-07
8.62912e-07
-1.99496e-06
6.24649e-06
-1.36669e-05
3.88925e-05
-8.04445e-05
0.000205937
-0.000398722
0.000911554
-0.00162522
0.00330807
-0.00531668
0.0097677
-0.00958742
0.0102053
-0.0105106
0.00932491
-0.00787831
0.000268781
-0.0065724
0.00136972
-0.0258191
0.001451
-0.00747819
0.00370027
5.76481e-05
-1.08026e-05
3.63355e-06
1.58227e-06
2.80167e-07
2.61201e-08
1.09063e-09
-6.23742e-09
-8.64099e-10
-9.94121e-11
-8.15967e-09
-5.41053e-09
4.00853e-09
4.01452e-09
-8.10721e-09
-4.79713e-11
-5.43512e-09
-1.74545e-09
1.90427e-08
-2.19178e-08
2.07049e-09
1.4825e-08
-2.59041e-10
-3.15911e-09
-2.51357e-09
-1.03834e-09
-3.73551e-09
5.45926e-10
3.82902e-10
5.47376e-10
-2.36548e-10
-4.40427e-10
-8.44782e-09
9.49508e-10
1.11351e-09
1.10449e-09
-8.4621e-09
-3.53103e-10
3.64874e-09
-8.93154e-09
-8.95646e-09
-6.97354e-10
3.64675e-09
-3.96258e-10
-6.13927e-10
-7.18273e-10
-7.94617e-10
4.20836e-09
-1.85842e-10
7.30721e-10
-3.05704e-09
-6.0864e-09
8.54928e-10
1.90997e-08
1.06057e-08
1.52527e-08
1.13883e-08
-4.89e-08
1.04168e-07
-3.1101e-07
-3.11039e-07
3.95899e-08
-6.85442e-07
4.77037e-08
2.09931e-06
-4.89971e-06
1.68813e-07
1.39378e-05
-3.11741e-05
3.18418e-07
7.9621e-05
-0.000169306
-1.17513e-06
0.000384576
-0.000761067
-1.48622e-05
0.00154471
-0.00273956
-5.91571e-05
0.00517811
-0.00746476
-0.000518182
0.0162065
0.00282608
0.0226326
0.0226325
-0.00217475
0.00653316
-0.00177423
0.00811755
0.000663206
-0.00460702
-0.00460686
0.00551297
-0.000128466
-0.00610743
-0.00610725
0.00173675
-0.00227542
-0.00986566
-0.00986581
0.0045491
0.0156931
0.0045492
0.00666394
0.0172705
0.00776599
0.0100336
0.0105118
-0.0174061
-0.0100095
0.00802326
0.00684522
-0.000120118
0.0017368
-0.00100655
-0.00303
0.0114555
-0.00924507
0.00590777
0.0136026
0.00781309
-0.00437895
-0.00573548
-0.00437879
-0.00303059
-0.0100094
-0.0174069
0.00776614
0.0172706
0.00666417
0.00802327
0.0068452
0.00781325
0.0136004
0.00590594
-0.00924564
0.011455
0.00132825
0.0117216
-0.000182145
-0.011949
0.016795
-0.000119859
-0.00271004
-0.0169434
-9.927e-05
-0.00195178
0.000139259
7.01159e-05
1.63062e-05
2.94501e-06
4.20054e-07
4.32928e-08
1.39723e-09
-1.50938e-08
2.93327e-07
-3.38689e-07
3.14955e-07
-3.35872e-07
7.65124e-07
-2.51711e-06
5.73642e-06
-1.65606e-05
3.65845e-05
-9.3892e-05
0.000197689
-0.000449967
0.000888885
-0.00177802
0.00323312
-0.00554445
5.57861e-05
0.00470652
0.00466666
0.00326164
-0.00177346
0.000229245
-0.00177314
0.000970989
0.001396
0.00140721
-0.000723398
-0.00068303
6.43647e-05
0.000336207
1.11847e-05
0.000889022
-6.05046e-05
-0.00104708
0.000997808
-6.42869e-06
-0.000486025
0.000445829
-0.00094208
8.06803e-06
-0.00193354
-1.47258e-05
0.00361734
-0.00603103
-2.20393e-05
-0.0105106
-0.000572342
0.00557492
-0.000432342
0.00132848
-0.0169436
-0.0027099
0.000383436
-0.000338261
-6.27095e-05
-5.27907e-05
-2.4804e-05
-9.37428e-06
-2.89181e-06
-7.23361e-07
-1.49099e-07
-2.59645e-08
-3.74601e-09
-1.08986e-09
-2.41219e-09
-6.7029e-10
-3.1979e-09
1.48547e-08
2.10836e-09
4.02768e-10
-7.09102e-08
7.03178e-08
-8.2927e-08
6.1188e-08
-5.52556e-08
5.24916e-08
-6.44399e-08
1.77731e-07
2.39876e-08
-7.6073e-07
-7.6621e-07
2.06509e-07
-1.67478e-08
4.70752e-08
-1.4556e-09
-2.71587e-09
-3.72893e-09
-2.48639e-09
1.24607e-08
-7.12848e-08
-1.15923e-07
3.93292e-08
-6.66714e-08
-5.38876e-07
-9.10808e-07
-5.62122e-07
-3.74566e-06
-5.67558e-06
8.74313e-07
1.73362e-07
5.90681e-08
-8.48226e-07
8.83196e-07
-2.59468e-06
2.4473e-06
-1.3364e-07
-9.89333e-07
-2.13793e-08
-1.44176e-08
-6.46556e-08
-2.15935e-07
-3.25411e-06
-1.6422e-05
-2.95818e-05
-2.12049e-05
-9.80825e-05
-0.000128372
1.2244e-05
3.76795e-06
2.33798e-06
-3.97637e-05
4.1517e-05
-0.000100269
9.73396e-05
-3.92255e-06
-4.47614e-05
1.66795e-05
-7.84166e-07
-7.19152e-06
-1.20728e-07
6.5524e-06
-1.74195e-05
-3.57996e-08
-6.30564e-06
2.3043e-06
-9.56269e-09
-4.6312e-08
-1.32932e-07
-6.85174e-07
4.15592e-08
2.73935e-07
1.4494e-08
-9.62965e-08
-1.23443e-08
6.45775e-08
-1.72028e-08
-7.86992e-09
-3.38529e-09
8.35022e-09
-2.85168e-08
-4.79805e-09
-5.39146e-08
2.31005e-09
1.64926e-08
2.30404e-07
8.3702e-08
-2.5505e-07
-1.84038e-07
4.86074e-07
3.29379e-06
1.82368e-05
-3.50415e-07
1.20758e-06
-6.96702e-05
-0.000253257
-0.000468295
-0.000360715
-0.00115157
-0.00165378
-7.23906e-05
2.08469e-05
4.42232e-05
-0.000942048
0.000997731
-0.0019335
0.00191554
-6.05403e-05
-0.00104696
0.000477402
-1.66567e-05
-0.000236781
-2.15777e-06
0.000222984
-0.000486018
1.09431e-06
-0.000212205
9.11794e-05
5.06977e-09
-6.47996e-07
-2.1158e-07
-8.35483e-07
-4.89853e-06
1.43427e-07
2.09926e-06
4.75286e-08
2.58474e-07
-2.17343e-06
5.95993e-06
-1.44516e-05
-1.44523e-05
1.22233e-06
3.65483e-05
4.70532e-06
-8.43872e-05
4.58722e-06
0.000191378
1.534e-05
-0.000414287
1.31325e-05
0.000839154
2.58674e-05
-0.00163796
3.78992e-05
0.0030261
-0.000109526
-0.00492779
0.000213575
0.00899695
-0.00152276
-0.0097399
-0.00141384
-0.00973961
0.00282602
0.0162065
-0.000518081
-0.00746421
-0.000221041
0.00517771
-5.91699e-05
-0.00273954
-5.65916e-05
0.00154474
-1.48342e-05
-0.000760915
-7.35663e-06
0.000384595
-1.16518e-06
-0.000169284
8.92869e-08
7.96184e-05
3.20536e-07
-3.11688e-05
3.79506e-07
1.39378e-05
1.69516e-07
1.14288e-06
-1.05955e-06
-1.78432e-07
-3.09164e-08
8.68723e-09
-3.04964e-09
-5.39973e-08
-3.65656e-07
-2.25707e-06
-1.27364e-05
-6.17547e-05
-0.000238827
-0.000660577
-0.00106014
-0.000588921
-0.00167592
-0.00996469
-0.00996464
-0.0100613
-0.00849616
-0.00208254
-0.00100263
-0.00475187
0.00618856
0.00768674
0.000329701
0.000209757
0.000230267
-0.00152252
0.00899631
0.000213728
-0.00492775
-0.000678654
-0.000696832
-0.000310762
3.80219e-05
-0.00163789
0.00302585
-0.00010961
-0.000119212
-6.20161e-05
2.58505e-05
0.000839
1.31594e-05
-0.000414249
-3.14425e-05
-9.71315e-05
-2.33421e-05
-4.47455e-06
1.22397e-06
3.65441e-05
-8.43848e-05
0.000191363
1.53485e-05
-1.92126e-05
-4.46027e-06
3.89018e-08
-2.0054e-08
-5.55738e-09
-8.95641e-08
3.96883e-08
8.46518e-07
6.20955e-08
8.4659e-07
2.58161e-07
-2.17348e-06
2.5221e-07
5.96125e-06
1.14299e-06
-8.35506e-07
-6.98832e-07
2.52216e-07
1.19782e-07
-1.32929e-07
-1.71636e-08
-9.6319e-08
1.45868e-08
2.73913e-07
6.45088e-08
1.04103e-07
7.46538e-10
-4.89156e-08
2.1453e-08
1.13952e-08
1.52478e-08
1.05524e-08
2.4599e-08
1.90732e-08
9.49448e-09
-1.22448e-09
3.24984e-09
-1.78637e-10
-7.42549e-10
4.20153e-09
-8.97496e-10
4.58557e-10
-4.30229e-10
-5.14214e-10
-4.18339e-10
-3.79746e-10
-2.04381e-10
4.55288e-10
-3.93225e-10
3.22177e-09
-1.41272e-09
-1.22698e-09
9.46013e-09
-1.0771e-09
2.82352e-10
3.4168e-10
-1.36964e-09
-5.41925e-09
-1.55512e-10
-4.68631e-09
3.65934e-09
1.62846e-08
-2.4441e-08
-5.75321e-09
1.83711e-10
-9.22305e-10
-1.09394e-09
-5.79095e-09
-1.55508e-09
-3.19067e-08
-1.82347e-07
-8.76591e-07
-3.44325e-06
1.12045e-06
9.2089e-06
4.96404e-05
0.000174755
-0.000734432
-0.00393733
0.0124862
-0.00177444
0.00653307
-0.0145482
-0.00718894
-0.00718836
-0.014549
-0.00741354
-0.000172706
-0.0127297
0.0196069
0.00165062
-0.000540626
-0.0130353
-0.000930084
0.00896761
-0.00655711
-0.0143554
-0.0122941
-0.0105615
-0.00827439
0.00129843
0.0022767
0.00124407
0.00063913
-0.0125067
0.00124431
-0.00741306
-0.0127303
-0.000172324
0.0038892
0.00165107
-0.0130354
-0.000540431
0.00181185
-0.000119721
0.0167952
-0.0119495
-0.000181686
0.0117224
0.000927151
-0.000354096
0.00227734
0.00180549
-0.00320494
0.00388947
0.00270748
0.000476554
-0.00110207
-0.000353596
-5.44231e-06
0.000926561
-0.00196094
-0.000120112
-0.00100636
0.00038365
-0.000338296
-0.000572474
-0.0004504
1.57063e-05
9.27163e-06
0.000137853
-0.00338485
0.00361724
-0.00603119
0.00600145
-0.000192794
-0.00376422
-1.46695e-05
-0.000233425
0.000325955
8.44449e-05
-8.01654e-05
-2.28494e-05
-5.39075e-06
-1.07362e-06
3.9667e-07
1.56727e-05
-7.5124e-07
-1.24769e-06
-5.36962e-06
2.46522e-07
-5.2032e-06
1.05949e-05
2.02031e-06
-3.10109e-05
-3.23905e-05
1.09899e-05
1.22815e-07
6.61895e-05
1.30322e-05
-0.000158731
-0.000166872
1.94464e-06
0.000336229
6.42922e-05
-0.000682925
-0.000723438
1.12057e-05
0.00140721
0.000216975
-0.00241516
-0.00260387
2.71347e-05
0.00013839
0.00117299
0.00446279
-8.74899e-05
-0.000156894
0.00026465
-0.000235982
0.00165644
0.00193359
0.00321892
0.00102058
0.000269922
5.95021e-05
1.10837e-05
1.74711e-06
7.45863e-07
-2.3672e-06
-2.80609e-06
-3.88606e-06
2.66697e-07
-3.88512e-06
7.02786e-06
2.20454e-06
-2.30886e-05
-2.30943e-05
7.03129e-06
1.79365e-06
2.69243e-07
3.05666e-08
-2.53541e-08
-1.77518e-08
-7.38755e-08
-4.53898e-08
6.07801e-08
-4.53395e-08
1.29342e-07
2.38723e-08
-5.6657e-07
-5.66942e-07
1.29507e-07
-7.80013e-08
-3.20441e-09
-8.72579e-09
-8.72781e-09
9.97587e-09
-7.17513e-09
-3.15823e-09
-6.44921e-08
5.25152e-08
-5.52336e-08
2.06392e-07
2.39629e-08
-7.66118e-07
-7.61244e-07
1.77942e-07
-7.39174e-08
-2.53457e-08
-7.85977e-09
1.43468e-09
4.16418e-08
-2.57702e-07
-1.4899e-08
-8.48238e-07
-9.75043e-09
-2.595e-06
-1.21355e-07
-7.19277e-06
-7.82313e-07
1.66806e-05
-1.65629e-05
1.2105e-07
-3.23912e-05
-3.10198e-05
2.01891e-06
1.0992e-05
-5.36939e-06
-5.20474e-06
2.4626e-07
1.57016e-06
-3.03768e-08
5.73905e-06
-2.51763e-06
2.44787e-06
-9.89422e-07
-1.33348e-07
7.65584e-07
-1.69725e-08
-3.35929e-07
3.14918e-07
-2.15748e-08
8.83248e-07
-3.38723e-07
2.93449e-07
-7.09378e-08
-3.32468e-09
7.02446e-08
-1.83768e-09
-8.29412e-08
-1.77352e-08
6.125e-08
1.74152e-08
-1.01955e-08
9.70618e-10
-4.83382e-09
-2.85563e-08
8.37136e-09
3.93805e-08
1.24301e-08
8.70483e-09
-3.09272e-08
-1.78799e-07
-7.13433e-08
-5.62173e-07
-1.06212e-06
-6.3108e-06
-3.74786e-06
-2.11963e-05
-3.18467e-05
-3.17752e-05
-6.30028e-06
4.70432e-06
-0.00011759
-0.000118032
-9.80277e-05
-0.00036094
-0.000269709
-0.000268694
-0.000432564
-0.000432745
-0.0011523
-0.0100618
-0.00850257
-0.00208462
0.00976783
-4.90846e-05
-0.00958737
0.000329672
-0.00590876
-0.000235843
-9.91872e-05
-0.00195182
0.000139248
7.01163e-05
1.63198e-05
2.94331e-06
4.20608e-07
4.35957e-08
1.43524e-07
-1.99472e-06
-1.26628e-07
-6.30532e-06
-3.6879e-08
-1.74229e-05
-5.70472e-07
-4.47699e-05
-3.91563e-06
9.7344e-05
-9.38991e-05
1.94046e-06
-0.000166872
-0.000158771
1.30324e-05
6.61941e-05
6.44509e-05
-1.46882e-05
4.34933e-05
1.41595e-05
-0.000117448
-0.000117472
4.35076e-05
-1.46839e-05
6.44385e-05
-1.08706e-05
1.07754e-05
1.68361e-06
2.19764e-07
3.13551e-08
-7.80295e-08
1.65328e-08
-1.58719e-08
-1.28557e-08
-8.3641e-09
-5.88276e-09
-6.48947e-09
-5.56622e-09
-2.44903e-08
-1.21693e-08
-4.42292e-09
-1.1551e-08
-9.3597e-09
-5.73426e-09
-1.77989e-08
-2.39201e-08
2.31703e-09
-1.46927e-09
-2.73559e-09
-3.7318e-09
9.53639e-09
6.39815e-09
4.28429e-10
-3.47318e-09
-5.66367e-10
-1.74569e-08
7.00508e-08
-1.22618e-08
2.51178e-10
6.6415e-09
1.38543e-08
-2.53064e-09
-6.66117e-08
-1.16004e-07
1.73379e-07
8.63229e-07
5.92774e-08
2.30478e-06
-5.39044e-07
-9.10183e-07
8.73436e-07
6.24781e-06
-1.36686e-05
-7.48389e-07
-3.97688e-05
1.1835e-08
9.11822e-05
-0.000100275
-2.1671e-06
-0.00023681
-1.66473e-05
0.000477421
-0.000449994
0.000197719
-2.28261e-05
1.14298e-05
-0.000212218
1.0943e-06
0.000223002
-2.89162e-06
-7.24505e-07
-1.49239e-07
-2.59066e-08
-4.61392e-08
-2.10558e-07
-6.46751e-07
-4.45942e-06
-1.92001e-05
-5.48186e-07
-5.47805e-07
7.23173e-06
8.08342e-06
0.00178504
-3.06523e-05
5.09105e-05
4.09926e-05
0.00558186
-4.90863e-05
-0.000205678
-7.33793e-05
-2.09811e-05
-4.91485e-06
-9.68459e-07
-1.6343e-07
-4.63231e-07
1.49602e-06
9.86004e-07
9.85297e-07
1.49697e-06
-4.63248e-07
-1.63431e-07
-9.68984e-07
-2.80633e-06
1.05993e-05
-2.36633e-06
-4.35287e-07
2.30472e-07
1.74771e-06
1.10852e-05
-1.08635e-05
-5.07573e-06
-1.24688e-06
-1.07313e-06
3.97684e-07
1.56751e-05
-3.25591e-06
-5.67062e-06
3.76338e-06
3.88987e-05
-8.04514e-05
-3.74374e-06
0.000205964
-0.000398761
-1.43261e-05
0.00091164
-0.00162533
-3.04523e-05
-0.00338496
4.10401e-05
0.00558152
-0.00531715
-0.000220863
0.00330811
-5.66867e-05
-7.21868e-05
2.07796e-05
1.22245e-05
-2.95539e-05
-1.64364e-05
-6.97906e-05
-0.000128137
-0.00025344
-0.000467013
-0.00100277
-0.00165624
-0.00475353
0.00618822
-0.00435767
0.00321053
-0.010562
-0.0143549
-0.00655677
0.00896772
-0.000930649
0.000624951
0.0076864
0.000265072
0.0102054
-5.28007e-05
-2.4806e-05
-9.39536e-06
-1.07321e-05
-2.6117e-05
5.08483e-05
-0.000119159
-6.20115e-05
7.21423e-06
-7.33819e-05
3.64083e-05
9.33077e-06
-2.09852e-05
-4.91554e-06
-6.41535e-05
0.000330453
0.000226898
6.92781e-05
-0.000502265
-0.000502338
0.000226952
-6.41498e-05
0.000330404
-4.05876e-05
-1.48997e-05
2.68169e-05
-5.08578e-06
4.93826e-06
-1.51247e-05
0.00012477
-0.000117893
0.00139572
0.000971173
-0.000227255
0.000101219
0.000285458
0.00243682
0.000102627
0.00551321
2.73695e-05
0.000209772
0.000230321
0.00270671
0.00811805
-0.00320545
0.000476225
-0.00110207
-0.00827375
0.0196067
-0.0122936
0.00129886
-5.84904e-06
-0.000651741
0.00370041
-0.000722462
0.000547994
0.00326407
-0.000267392
-0.000636938
0.000547584
0.0116962
0.00770021
0.0189833
0.0113657
0.0157047
0.0169191
-0.00102745
0.00102502
0.000268495
5.8473e-05
-4.056e-05
5.94935e-05
0.000269926
-0.000117786
-0.000227271
-1.49662e-05
-1.48974e-05
1.82334e-05
3.29398e-06
4.86788e-07
4.70906e-08
-1.44221e-08
-6.503e-08
-2.19157e-07
2.34313e-06
4.15218e-05
-3.66523e-07
1.16077e-06
4.43044e-05
0.00178495
0.000137989
-0.00023313
-8.00857e-05
8.44226e-05
0.000325913
9.11173e-06
1.53809e-05
-8.70798e-05
-0.000450644
0.00117294
0.00446261
0.00165606
0.00013833
-0.000266967
0.00102031
0.000512702
0.00193389
0.000124837
-5.3888e-06
3.65953e-05
-1.8399e-07
-2.55003e-07
-5.3841e-08
8.37024e-08
7.45765e-07
4.94272e-06
2.68773e-05
-0.000205645
0.000511754
-7.39982e-06
8.39486e-08
3.78682e-07
6.55231e-06
-4.35259e-07
1.57013e-06
-3.0008e-08
2.75495e-10
2.67082e-10
-1.05598e-09
-4.6796e-09
-3.94237e-10
-1.16799e-10
-5.41744e-09
-1.36337e-09
-2.62089e-10
1.62673e-08
3.63144e-09
-4.34071e-08
-1.23888e-08
9.93814e-09
-7.31563e-09
-8.33321e-10
-8.35178e-09
1.14025e-05
0.000445799
-1.43019e-05
-2.2029e-05
0.00181186
2.76133e-05
-0.00196089
-1.754e-09
8.13215e-09
4.59904e-06
-4.33384e-06
-2.27881e-07
-0.000170716
-3.74805e-06
-6.40956e-06
-1.27262e-07
-5.66961e-07
-1.74211e-08
-1.81071e-09
1.74304e-08
0.0105118
0.0100335
-0.000137884
-0.0014769
-0.000137838
0.0173116
0.018984
2.43003e-09
1.65513e-08
2.30415e-07
2.39643e-08
2.06363e-07
1.77732e-07
-7.60863e-07
-7.66173e-07
-1.70887e-08
-3.3589e-07
6.12197e-08
1.73934e-08
-9.36566e-09
-1.16086e-08
-1.01806e-08
1.0348e-09
-5.22904e-10
-3.42491e-09
6.37813e-09
9.45821e-09
6.61967e-09
1.39181e-08
2.45724e-08
-1.23521e-08
1.91178e-08
1.05581e-08
1.52893e-08
9.49109e-09
1.14124e-08
8.0653e-09
1.14042e-08
1.52793e-08
1.04918e-08
2.45633e-08
1.90228e-08
-1.23888e-08
6.99746e-08
2.51541e-10
1.39558e-08
6.62939e-09
9.47252e-09
6.28119e-09
-3.53058e-09
3.5892e-10
7.02245e-08
-8.29215e-08
6.12025e-08
-4.83653e-09
1.00369e-09
-1.01588e-08
-1.15466e-08
-9.37368e-09
-1.78782e-08
-5.71795e-09
-2.39297e-08
-7.24321e-09
-3.14297e-09
-4.53563e-08
6.07333e-08
-8.71326e-09
-3.15553e-09
-7.24711e-09
-2.38612e-08
-5.68334e-09
-5.52039e-08
5.25604e-08
-6.43276e-08
-7.3904e-08
1.29514e-07
1.29282e-07
2.38888e-08
-5.66786e-07
-4.6318e-07
1.49605e-06
2.46352e-07
1.57019e-06
-2.51726e-06
-2.98761e-08
5.73661e-06
-7.19167e-06
2.44693e-06
-1.33518e-07
-9.8919e-07
7.65267e-07
9.79521e-10
2.60967e-08
2.81455e-07
1.58881e-06
3.65542e-06
-1.07425e-05
5.79096e-05
0.00370033
-0.00303041
0.0114552
-0.00924535
0.00132821
0.0117221
-0.000182067
-0.0119494
0.00896767
-0.0065568
-0.0143546
-0.0105611
-0.0122931
-0.0127295
0.0196066
0.00388921
0.0027075
-0.000172534
-0.00741322
-0.0145482
-0.00718844
-0.0125062
-0.00718808
-0.0145489
-0.00741308
-0.0127301
0.0196067
-0.0105611
-0.0122935
-0.014355
-0.00655647
0.00896791
-0.0119495
0.016795
-0.0169436
0.0114553
0.00132867
0.0117223
-0.00924512
0.00590591
0.0136007
0.0100326
0.00776484
0.0172696
0.0066639
0.00454859
0.00802236
-0.00986597
-0.00986581
0.0045487
0.00666348
0.0172694
0.00776509
0.0100327
0.0105105
0.0136021
0.00590676
0.00694707
0.00656358
-0.00315997
0.017311
0.0186556
0.0189819
0.0157551
0.015704
0.016919
0.0157043
-0.0234217
-0.000722654
-0.000722445
-0.00722599
0.0157548
0.018982
0.0186556
0.0173112
0.00656303
0.00694718
0.00506078
0.00013802
-0.000162981
-0.000444783
-0.00534579
-0.00744646
-0.00784717
-0.0181441
-0.0203358
0.00321095
-0.00435771
0.00976767
-0.00531691
0.00330815
-0.00162533
0.00091159
-0.000398745
0.00020595
-8.04554e-05
3.88977e-05
-1.36676e-05
6.24725e-06
-1.99498e-06
8.63175e-07
-2.57695e-07
2.93367e-07
-3.38636e-07
3.14895e-07
-3.35979e-07
2.06398e-07
2.39619e-08
1.77967e-07
-6.44747e-08
5.25519e-08
-5.52033e-08
1.74468e-08
-6.22758e-09
1.04047e-09
2.66898e-08
2.80496e-07
1.58138e-06
3.62364e-06
-1.07961e-05
5.77179e-05
0.00370014
-0.00303029
-0.0010066
0.00173654
0.000383566
-0.00610698
-0.00610708
0.00173653
-0.00100652
0.000383423
-0.00270974
-0.0169435
0.0167951
-0.000930243
-0.0130351
0.00165052
-0.00054054
0.00181215
-0.00011938
-9.91662e-05
-0.00195179
-0.000734584
-0.00195179
0.00165027
0.00388903
0.00811746
0.00270744
-0.00177427
-0.00177434
0.00811774
0.000662629
-0.00460714
0.00551293
0.00551309
2.75795e-05
-0.00460724
0.00047624
0.00180538
0.0022765
0.00129903
-0.00827394
0.00124384
0.000638942
0.0124868
-0.0039375
0.00282598
-0.00538153
-0.00868018
-0.0184915
-0.0135005
0.0226331
-0.00973969
0.00899626
0.00899657
0.000213642
0.00517784
-5.91252e-05
-0.00273955
0.00154471
-1.47997e-05
-0.000760953
0.00038458
-1.16612e-06
-0.000169292
7.96222e-05
3.23557e-07
-3.11728e-05
1.39383e-05
1.69486e-07
-4.89901e-06
2.09944e-06
4.77902e-08
-6.8524e-07
2.73883e-07
1.45496e-08
-9.63767e-08
7.75795e-10
-4.89881e-08
-4.8971e-08
9.38984e-09
-1.27315e-09
1.17206e-09
-8.40643e-09
-3.06487e-10
3.62545e-09
3.65934e-09
-8.99759e-09
-1.59078e-09
3.99398e-09
4.08446e-09
-8.18009e-09
-9.32356e-10
1.1506e-08
1.14823e-08
-8.20397e-09
-3.18121e-09
-5.83205e-09
-5.776e-09
-8.36472e-09
-5.85985e-09
-6.49241e-09
-5.60941e-09
-1.21491e-08
-4.26141e-09
7.51624e-09
-1.89809e-08
-8.77034e-10
3.61594e-09
1.63312e-08
-2.44971e-08
-5.37298e-09
-1.40067e-09
-1.00438e-08
-2.09516e-10
8.8862e-09
-2.19588e-08
-9.53602e-10
-1.69764e-09
1.89178e-08
-5.3505e-09
-3.74539e-09
5.60173e-10
1.43073e-09
4.32617e-08
4.19486e-07
2.94398e-06
1.63161e-05
7.01609e-05
0.000139251
-4.90059e-05
-0.0095875
0.0102054
-0.0105105
0.00932479
-0.00554423
0.00323309
-0.00177791
0.000888853
-0.000449933
0.000197685
-9.38887e-05
3.65889e-05
-1.65614e-05
5.73791e-06
-2.51714e-06
7.65398e-07
-1.69665e-08
-7.66009e-07
-7.61052e-07
-5.66664e-07
9.85323e-07
2.66908e-07
9.85881e-07
-3.88557e-06
-5.20359e-06
-5.36889e-06
1.09887e-05
1.05963e-05
2.02041e-06
-3.23878e-05
1.20911e-07
-1.65626e-05
-7.82134e-07
1.66795e-05
-1.74185e-05
-5.67314e-07
4.1516e-05
-3.97597e-05
1.56735e-05
-3.52328e-08
6.55136e-06
-1.21468e-07
-2.59431e-06
8.83158e-07
-2.13713e-08
3.14932e-07
-1.76573e-08
-8.28653e-08
-4.71458e-09
-5.35633e-09
7.53113e-09
-4.35867e-09
-1.21841e-08
-5.59236e-09
-6.51547e-09
-5.8169e-09
-8.3001e-09
-6.98108e-10
-8.2563e-09
-4.20872e-09
-4.32612e-08
3.70433e-09
-6.03806e-11
-8.20169e-10
1.63335e-08
-1.89413e-08
1.89575e-08
-1.74978e-09
-5.42234e-09
-8.12472e-09
-1.11641e-09
3.05713e-08
2.69706e-07
1.79513e-06
9.33434e-06
3.64071e-05
0.000101304
0.000285491
0.0024367
-0.00227558
-0.00573546
-0.00437867
-0.00196093
0.000927119
-6.03886e-06
-0.000181624
-0.00110205
-0.0130352
-0.000540574
0.00181178
2.76829e-05
0.000209671
0.000329731
-0.00590892
0.00557505
-0.00803486
0.00145086
-0.0258199
0.00136948
-0.00657255
0.000268933
0.00466678
0.00470641
-0.00787837
5.57994e-05
0.00117294
0.00446278
-8.73056e-05
-0.00475267
-0.00849693
-0.0100611
-0.00115153
-0.00165784
-0.00208421
-0.00100248
-0.000253429
-0.00046655
-0.000361053
-9.81684e-05
-0.000128115
2.08576e-05
-7.24936e-05
0.000138055
0.00558162
-0.006031
0.00361713
-0.00376418
-0.00019276
0.00600138
-2.21379e-05
-5.27792e-05
-9.93462e-05
-0.000119941
-0.0027098
-0.000120106
-0.000353722
0.000476499
-0.00320495
-0.000172445
0.00653361
-0.00217438
-0.00996512
-0.00167512
-0.000588434
-0.00106008
-0.000660756
-0.00023882
-6.17759e-05
-1.27385e-05
-2.25763e-06
-3.65763e-07
-5.40515e-08
-3.11501e-09
8.66019e-09
8.653e-09
1.24555e-08
-7.12469e-08
-5.6239e-07
-3.74982e-06
-2.12247e-05
-2.95408e-05
1.22403e-05
-6.97372e-05
-1.64382e-05
-3.25696e-06
-5.66681e-06
3.76766e-06
2.34199e-06
9.11767e-05
-0.000100271
4.15132e-05
-4.47641e-05
-3.91877e-06
9.73396e-05
-0.000236784
-1.66465e-05
0.00047739
-0.00104702
-6.04658e-05
0.00191537
-1.45801e-05
-0.00193348
0.000997759
8.04024e-06
0.00178498
-0.00338501
4.09629e-05
5.08924e-05
-2.4779e-05
-9.38287e-06
-6.43102e-06
-0.000486008
0.000222977
1.09869e-06
0.000445785
-0.000942041
-1.43084e-05
4.43321e-05
9.18438e-06
1.53968e-05
0.000264845
0.00768646
0.000625282
-0.000930214
0.00618792
-0.000450383
-0.000432052
0.00165576
0.0076983
0.0116956
0.0032187
0.00193619
0.000138646
-0.000233406
0.000325997
8.44679e-05
1.17164e-06
-3.56489e-07
-2.18186e-07
-6.47527e-08
-5.39423e-07
-9.08727e-07
8.74022e-07
3.97789e-07
1.56725e-05
-1.74201e-05
6.55155e-06
-7.19179e-06
-7.83241e-07
1.66799e-05
-5.70054e-07
-7.23882e-07
-2.89188e-06
-2.16182e-06
-6.47129e-07
8.22945e-09
-3.97657e-05
-7.50622e-07
-4.45995e-06
7.96229e-05
9.1719e-08
-0.000169314
-1.1699e-06
0.000384606
-7.31669e-06
-0.000761007
-1.48456e-05
0.0015447
-5.65238e-05
-0.00273955
-5.94474e-05
0.00517782
-0.00022112
-0.00746428
-0.000518195
0.0162064
0.0138635
-0.00152302
0.000230291
0.00023023
0.0162067
-0.000518071
-0.00746419
-0.00152299
-0.00973926
0.00282614
0.0226329
-0.00141337
-0.0135005
-0.0184907
-0.00867979
-0.0203364
-0.00538163
-0.00217451
0.00653355
-0.00320502
0.00124407
0.00227704
-0.00827385
0.00129918
-0.00110212
-0.000354059
-0.000651732
-0.000128389
0.000102557
-6.27074e-05
0.000174708
-0.000696949
0.00021357
-0.0049276
0.00302622
-0.001638
0.00083908
0.000839018
1.31634e-05
-0.00041427
1.5352e-05
0.000191365
4.59642e-06
-8.43845e-05
4.70964e-06
3.65479e-05
1.22489e-06
-1.44531e-05
1.14408e-06
5.96124e-06
2.52632e-07
-2.17332e-06
2.58486e-07
8.46474e-07
3.97356e-08
-3.1103e-07
6.44538e-08
1.0413e-07
2.14068e-08
1.04144e-07
7.88033e-10
-9.63367e-08
1.45472e-08
2.73993e-07
4.17368e-08
-6.85147e-07
4.7776e-08
2.09957e-06
1.43901e-07
-4.89904e-06
1.69673e-07
1.39384e-05
3.80784e-07
-3.11733e-05
3.20272e-07
4.70669e-06
3.65475e-05
-2.26661e-07
-1.44523e-05
5.96087e-06
-2.17327e-06
8.46526e-07
6.19171e-08
-3.1106e-07
6.45952e-08
-1.71461e-08
-1.32842e-07
2.58565e-07
-1.78934e-07
-1.06229e-06
-6.3151e-06
-3.18604e-05
-0.000117922
-0.00026893
-0.000432417
-0.000432311
-0.00996481
-0.010061
-0.00115142
-0.000269326
-0.00492723
-0.000109722
0.00302616
3.79559e-05
-0.0016379
2.5855e-05
-6.20182e-05
-0.000310806
3.79059e-05
-0.000170612
-9.71391e-05
1.31502e-05
-0.000414286
0.000191383
-8.43896e-05
4.59018e-06
-2.3336e-05
-4.31643e-06
-4.47271e-06
1.22321e-06
-6.98265e-07
2.52427e-07
1.20143e-07
-8.94802e-08
3.97842e-08
-6.15792e-09
-3.11868e-09
1.17272e-09
-1.27987e-09
7.74878e-09
3.0857e-09
3.13468e-09
7.75283e-09
4.436e-09
-1.36431e-09
5.87508e-09
-1.62295e-08
-1.79608e-10
-3.10735e-09
1.49027e-08
2.08746e-09
-8.081e-09
3.35458e-09
1.04537e-08
4.53301e-09
1.95788e-08
4.24874e-09
-8.16879e-10
-7.2284e-10
-1.69962e-10
7.0631e-10
5.17104e-09
-1.89629e-10
4.48147e-09
5.9309e-09
-1.44172e-09
-4.60428e-10
-2.83231e-10
1.48139e-08
-3.12885e-09
-2.49058e-09
-1.06933e-09
-2.19155e-08
8.95265e-09
-1.48108e-10
-1.00074e-08
-1.37191e-09
-4.25994e-10
-7.17375e-10
-6.10838e-10
3.27298e-09
-4.16074e-10
1.02646e-09
-3.9206e-10
4.46528e-10
-4.56413e-10
-3.96752e-10
-5.67806e-10
-4.08245e-10
3.23583e-09
-8.42776e-09
1.01881e-09
-1.71295e-08
-5.50658e-09
-2.01284e-08
3.91803e-08
1.11985e-06
9.2126e-06
4.962e-05
-0.000119233
-0.000109487
-0.000119236
0.0001392
-0.00022098
0.00976781
-4.91298e-05
0.00558172
4.10975e-05
0.0036172
-1.46838e-05
0.00191551
-6.04666e-05
-0.00104697
0.000888898
1.12049e-05
0.000336182
0.000330413
6.43135e-05
-0.000723423
0.00140696
0.00139579
0.000216915
-0.00260368
2.71908e-05
-0.00177814
0.00323307
-0.00376421
0.00600122
-0.000192583
-0.00554445
5.60289e-05
0.00470611
0.00466693
0.000268781
-0.00787807
0.00932517
-0.0105105
-2.20663e-05
-0.00603096
0.0102053
-0.00958731
0.00768689
0.000329776
-0.0059089
-0.000235891
0.00557509
-0.00057248
-0.00803513
-0.00747762
0.00145088
0.00137
-0.0258205
0.0116961
0.0113652
0.000547429
-0.00102759
-0.00495787
0.000268306
0.00326089
0.00326139
-0.000636547
-0.00241488
0.000216912
0.00139565
0.00140717
-0.00260369
2.70905e-05
-0.000723449
6.43368e-05
0.000330394
0.00033622
1.12183e-05
-0.000166873
1.3032e-05
6.44333e-05
6.61912e-05
1.94591e-06
1.82445e-05
3.29656e-06
4.86755e-07
4.70575e-08
-1.44808e-08
-6.66446e-08
-1.16172e-07
1.73471e-07
5.91848e-08
2.3044e-06
-2.59469e-06
8.83119e-07
-9.89486e-07
-1.333e-07
2.44743e-06
-1.21307e-07
-1.49227e-07
-2.5917e-08
-2.15954e-08
-7.82728e-09
-3.34509e-09
-7.09149e-08
-1.74328e-08
-3.7308e-09
-2.40921e-09
3.93667e-08
8.33908e-09
-2.73347e-09
-5.89284e-10
-1.83119e-09
-2.85542e-08
-1.83962e-07
-1.07343e-06
-5.39032e-06
-2.28483e-05
-8.01556e-05
-1.49192e-05
0.000512029
0.00102001
0.000269897
0.000125213
-1.48791e-05
-4.05724e-05
-0.000117837
-0.000682908
-0.000502356
6.92424e-05
0.000226876
0.000226933
-6.41524e-05
-0.000117476
1.41696e-05
4.3493e-05
4.35044e-05
-1.46848e-05
-3.10117e-05
2.01981e-06
1.05968e-05
1.09907e-05
-3.23913e-05
1.23884e-07
-5.06964e-06
2.69507e-05
5.94817e-05
1.10819e-05
4.94993e-06
-1.24778e-06
-2.36721e-06
-5.20383e-06
2.46317e-07
1.49666e-06
1.57033e-06
-5.36836e-06
-2.97002e-08
-2.54939e-07
7.45579e-07
1.74746e-06
2.30437e-07
8.35551e-08
-5.38632e-08
-1.4526e-09
2.2866e-09
1.65317e-08
-1.58823e-08
-1.28252e-08
-1.26994e-08
-9.63646e-09
-1.30981e-08
-1.27523e-08
-1.58159e-08
9.96294e-09
-1.25011e-08
3.13375e-08
2.19734e-07
-4.35083e-07
-4.6331e-07
-1.63356e-07
-4.62009e-08
-9.31968e-09
-8.48219e-07
-1.50074e-08
-2.11057e-07
-3.54478e-08
-6.30537e-06
-1.27028e-07
-8.35536e-07
1.14398e-06
-8.35389e-07
-4.45946e-06
-1.9211e-05
1.63094e-05
7.01254e-05
-5.66092e-05
0.00330804
-3.0645e-05
0.00178505
8.10272e-06
0.000997715
-6.45138e-06
0.000477418
-1.66451e-05
-0.000236774
0.000197695
1.94154e-06
6.61841e-05
6.44387e-05
1.30288e-05
-0.000166849
-0.000158764
-6.41622e-05
-0.000117447
-4.05779e-05
0.000268384
0.00102453
0.00326367
-0.000267423
-0.000267418
0.000547282
-0.00102747
-0.00657323
-0.00495702
-0.000338253
0.000209733
5.08699e-05
-5.27918e-05
-2.48071e-05
-2.61183e-05
7.22233e-06
-6.19948e-05
2.58241e-05
-1.92068e-05
1.53572e-05
-5.45415e-07
-1.07266e-05
-3.44258e-06
-8.75947e-07
-1.82213e-07
-3.18435e-08
-5.81222e-09
4.22857e-10
5.66639e-10
1.48615e-09
4.35335e-08
4.2008e-07
2.94339e-06
9.82251e-08
0.000205918
-3.74545e-06
9.11802e-05
1.02465e-08
-0.000100265
-2.15871e-06
9.73401e-05
-3.91817e-06
-4.47621e-05
3.65873e-05
-9.38982e-05
-5.39389e-06
2.33721e-06
3.77114e-06
-2.12264e-05
-9.81883e-05
-0.000360767
-0.000117576
-3.17836e-05
-6.29921e-06
-1.05933e-06
-3.75314e-06
-5.63239e-07
-1.78241e-07
-3.09331e-08
-7.12957e-08
1.24507e-08
-2.46616e-09
3.93559e-08
-2.57738e-07
-1.50122e-08
2.93435e-07
-3.25162e-09
7.03248e-08
-1.79223e-09
-3.72017e-09
-2.58678e-08
-1.49159e-07
-7.23617e-07