/*--------------------------------*- C++ -*----------------------------------*\
| =========                 |                                                 |
| \\      /  F ield         | OpenFOAM: The Open Source CFD Toolbox           |
|  \\    /   O peration     | Version:  2306                                  |
|   \\  /    A nd           | Website:  www.openfoam.com                      |
|    \\/     M anipulation  |                                                 |
\*---------------------------------------------------------------------------*/
FoamFile
{
    version     2.0;
    format      ascii;
    arch        "LSB;label=32;scalar=64";
    class       volScalarField;
    location    "0.3";
    object      gradTz;
}
// * * * * * * * * * * * * * * * * * * * * * * * * * * * * * * * * * * * * * //

dimensions      [0 -1 0 1 0 0 0];

internalField   nonuniform List<scalar> 
2658
(
-0.0553888
-0.0504089
-0.0213486
-0.018115
-0.027121
-0.0274215
-0.0173276
-0.0170137
-0.0181049
-0.0273841
-0.0368918
-0.0363187
-0.0553383
-0.0541531
-0.0527796
-0.0539712
-0.0553201
-0.0538931
-0.0525173
-0.0533573
-0.0543289
-0.0490537
-0.0547431
-0.0363017
-0.0593478
-0.0545288
-0.0505812
-0.0552014
-0.0587112
-0.0517989
-0.0587105
-0.050581
-0.054528
-0.054742
-0.0593472
-0.0363005
-0.0401868
-0.0684017
-0.049053
-0.0543299
-0.0533582
-0.0525173
-0.0538924
-0.0679228
-0.0352338
-0.0349208
-0.0368917
-0.0679944
-0.0539718
-0.0527797
-0.0541522
-0.0553392
-0.0498429
-0.0716677
-0.0553917
-0.0527861
-0.0679572
-0.0350223
-0.0371004
-0.0539275
-0.0679581
-0.0527867
-0.0553915
-0.0716673
-0.0387889
-0.0363879
-0.0368196
-0.0281917
-0.0269232
-0.0269226
-0.0181304
-0.0167987
-0.0104146
-0.00988019
-0.00604456
-0.00986228
-0.00985604
-0.00603493
-0.00549977
-0.00533012
-0.00984225
-0.0104097
-0.0167195
-0.017379
-0.0174736
-0.00587949
-0.00160475
-0.000359067
-6.72985e-05
-1.07851e-05
-1.501e-06
-2.16131e-07
-6.95817e-08
-6.75155e-08
-4.74704e-08
-9.09961e-08
-4.65748e-08
-5.92201e-08
-4.57365e-08
-4.37556e-08
-5.4881e-08
-4.33328e-08
-7.6475e-08
-4.91872e-08
-4.28166e-08
-7.01948e-08
-5.90678e-08
-1.79844e-07
-5.52925e-08
-5.28421e-08
-4.55234e-08
-3.83791e-08
-4.60411e-08
-3.83411e-08
-4.53918e-08
-5.28306e-08
-4.29263e-08
-7.02287e-08
-7.65612e-08
-4.93766e-08
-4.33252e-08
-5.51917e-08
-4.37941e-08
-4.57945e-08
-6.96771e-08
-6.9869e-08
-6.75435e-08
-9.09601e-08
-4.66098e-08
-4.74604e-08
-6.07768e-08
-4.80529e-08
-5.70664e-08
-4.9165e-08
-6.21537e-08
-6.25999e-08
-6.65229e-08
-1.18654e-07
-7.9066e-08
-7.91006e-08
-6.6531e-08
-6.26454e-08
-5.61747e-08
-5.1835e-08
-6.31445e-08
-5.18763e-08
-7.13221e-08
-1.05608e-07
-5.4039e-08
-5.43363e-08
-4.43159e-08
-7.50605e-08
-1.08374e-07
-4.36441e-08
-7.58096e-08
-7.81015e-08
-7.3924e-08
-7.26974e-08
-6.15123e-08
-7.33864e-08
-7.36967e-08
-6.03504e-08
-7.32886e-08
-6.79274e-08
-5.6e-08
-6.57513e-08
-6.4042e-08
-7.29487e-08
-1.67258e-07
-2.81058e-07
-9.27645e-07
-2.76534e-06
-7.52318e-06
-2.00136e-05
-5.07283e-05
-0.000124782
-0.00029192
-0.000659432
-0.0014104
-0.0028958
-0.00559478
-0.0102902
-0.0177727
-0.0285178
-0.027358
-0.0267375
-0.0270532
-0.0273836
-0.0271206
-0.0181147
-0.0274216
-0.0368188
-0.0363882
-0.0387888
-0.0363187
-0.0570777
-0.0174735
-0.00587944
-0.00160473
-0.000359058
-6.72959e-05
-1.07845e-05
-1.50097e-06
-2.16142e-07
-6.96113e-08
-6.43651e-08
-7.56533e-08
-1.99567e-07
-7.47293e-08
-7.47828e-08
-7.5635e-08
-6.43788e-08
-1.99516e-07
-6.51592e-08
-6.99882e-08
-6.97244e-08
-8.72016e-08
-6.20618e-08
-6.36562e-08
-5.91436e-08
-6.50631e-08
-6.98823e-08
-2.21453e-07
-2.06353e-07
-2.34661e-07
-2.0634e-07
-6.36733e-08
-5.90939e-08
-6.86919e-08
-1.79749e-07
-6.64168e-08
-6.64171e-08
-6.87766e-08
-7.23523e-08
-6.93524e-08
-7.41838e-08
-7.42124e-08
-1.89781e-07
-6.93352e-08
-5.58012e-08
-3.52403e-08
-3.58775e-08
-3.42332e-08
-4.32473e-08
-3.54022e-08
-3.65928e-08
-8.70241e-08
-2.11464e-07
-1.36184e-07
-1.27627e-07
-6.58204e-08
-4.4969e-08
-5.99909e-08
-1.24028e-07
-4.20865e-07
-1.06494e-06
-1.06501e-06
-1.06857e-06
-2.85377e-06
-2.85885e-06
-7.82107e-06
-2.05281e-05
-2.00067e-05
-5.22485e-05
-0.00012764
-0.000120711
-0.000300206
-0.000674959
-0.000615675
-0.00145121
-0.00296597
-0.00259432
-0.00575968
-0.0105581
-0.00878789
-0.0181817
-0.0301845
-0.024573
-0.0437945
-0.0335037
-0.0468308
-0.0468305
-0.0552003
-0.0592793
-0.0483259
-0.0439943
-0.0671576
-0.0412692
-0.0412694
-0.0416737
-0.0669854
-0.0421339
-0.0421343
-0.0409343
-0.0674679
-0.0542328
-0.0542325
-0.0728141
-0.106823
-0.0728142
-0.0741693
-0.105712
-0.0743637
-0.086845
-0.0667336
-0.0647385
-0.052318
-0.0600189
-0.0802354
-0.0701868
-0.0409341
-0.0396143
-0.0677764
-0.0526694
-0.0742028
-0.105723
-0.0744128
-0.0817988
-0.0763249
-0.0770194
-0.076324
-0.0677759
-0.0523179
-0.064739
-0.0743611
-0.105711
-0.0741685
-0.0600197
-0.0802351
-0.081797
-0.0744156
-0.105721
-0.0742036
-0.0526692
-0.059983
-0.0732737
-0.106902
-0.0728672
-0.0545194
-0.0675451
-0.0407727
-0.0542519
-0.0524831
-0.053873
-0.0182196
-0.00616925
-0.00168088
-0.000373862
-6.9445e-05
-1.09968e-05
-1.50576e-06
-1.24305e-06
-9.3797e-07
-9.54888e-07
-9.58727e-07
-9.93838e-07
-2.7403e-06
-7.69625e-06
-1.95661e-05
-5.11301e-05
-0.000121114
-0.000291009
-0.000636634
-0.00139442
-0.00278502
-0.00549967
-0.00985575
-0.017379
-0.0181045
-0.0170136
-0.0173274
-0.0167991
-0.00983115
-0.00610316
-0.0098313
-0.00536278
-0.00549112
-0.00541185
-0.00276093
-0.00279653
-0.00159977
-0.00137466
-0.00159507
-0.00278521
-0.00310285
-0.00277932
-0.00274862
-0.00160504
-0.00136184
-0.00135581
-0.00276145
-0.00308634
-0.00537173
-0.00606608
-0.00972639
-0.0168911
-0.0180794
-0.0270533
-0.0282357
-0.0349212
-0.0679952
-0.0599838
-0.0542516
-0.0407723
-0.0533285
-0.0297826
-0.0187363
-0.0178896
-0.00609176
-0.00166207
-0.000370531
-6.90592e-05
-1.09898e-05
-1.52212e-06
-2.21458e-07
-6.99631e-08
-6.49548e-08
-1.89762e-07
-5.91948e-08
-6.2142e-08
-8.7288e-08
-2.02201e-07
-2.94144e-07
-3.00703e-07
-3.085e-07
-3.06862e-07
-2.74542e-07
-1.19203e-07
-3.5445e-07
-1.04944e-06
-1.35628e-06
-2.89447e-06
-2.71703e-06
-9.85502e-07
-1.30209e-06
-1.72832e-06
-2.45126e-07
-2.39407e-07
-2.28289e-07
-1.54802e-07
-2.74317e-07
-1.88962e-06
-1.39811e-06
-5.71711e-07
-1.64856e-06
-1.21498e-05
-1.07369e-05
-1.32231e-05
-8.11721e-05
-6.96431e-05
-3.139e-05
-4.56884e-06
-4.31759e-06
-2.63988e-06
-2.66818e-06
-7.39285e-06
-7.39076e-06
-3.46989e-06
-2.72502e-06
-1.28824e-06
-1.68075e-06
-1.22216e-05
-7.76629e-05
-7.73242e-05
-0.000417111
-0.00038323
-0.000426852
-0.00188318
-0.00176744
-0.000908232
-0.000183738
-0.000175849
-0.000118957
-0.000118862
-0.000283317
-0.000281953
-0.000145437
-0.000120588
-4.93359e-05
-2.41992e-05
-1.94439e-05
-9.57472e-06
-1.91052e-05
-4.94936e-05
-2.38078e-05
-1.90629e-05
-7.3313e-06
-3.38911e-06
-4.3147e-06
-4.27242e-06
-2.85338e-06
-1.01196e-06
-1.03913e-06
-3.63969e-07
-3.31552e-07
-1.00515e-07
-3.8923e-07
-5.43974e-07
-5.53204e-07
-4.36836e-07
-5.63243e-07
-5.77521e-07
-2.09056e-07
-6.21284e-07
-1.72848e-07
-2.59278e-07
-1.87416e-06
-1.48487e-06
-4.85982e-06
-4.39334e-06
-1.2563e-05
-7.93286e-05
-0.000426132
-0.000419226
-0.0018965
-0.00188396
-0.00699711
-0.00670823
-0.00681387
-0.0195915
-0.0205778
-0.012422
-0.00372945
-0.00363678
-0.00276131
-0.00274846
-0.00537156
-0.00532997
-0.00310279
-0.00277918
-0.00135361
-0.000738951
-0.000634641
-0.000346172
-0.000627073
-0.00136177
-0.000733493
-0.000628704
-0.000281787
-0.000143847
-0.000172941
-2.9435e-05
-2.90408e-05
-2.05261e-05
-7.6721e-06
-7.82016e-06
-2.85856e-06
-2.94614e-06
-7.80026e-06
-2.07065e-05
-5.13413e-05
-5.13411e-05
-4.99103e-05
-0.000126778
-0.00012269
-0.000292835
-0.000276159
-0.000663763
-0.000624137
-0.00140804
-0.00127971
-0.0028894
-0.00262036
-0.00555637
-0.00483407
-0.0101499
-0.00882658
-0.0175262
-0.0144568
-0.0274342
-0.0234541
-0.0435543
-0.0393668
-0.043554
-0.0335035
-0.043793
-0.0245724
-0.0301841
-0.0147021
-0.0181811
-0.00878766
-0.0105579
-0.00491373
-0.00575952
-0.00259427
-0.00296593
-0.00129689
-0.00145117
-0.000615643
-0.000674941
-0.000278941
-0.000300188
-0.000120702
-0.000127633
-5.01181e-05
-5.22448e-05
-2.00048e-05
-2.04142e-05
-3.48106e-05
-5.48283e-06
-8.1962e-07
-1.57735e-07
-1.08086e-07
-3.44251e-07
-2.08146e-06
-1.34075e-05
-7.98303e-05
-0.000414241
-0.00180497
-0.00639878
-0.0178201
-0.0364539
-0.0537013
-0.0498065
-0.0498063
-0.0419025
-0.0540488
-0.0324176
-0.0208858
-0.0499038
-0.0369289
-0.0358392
-0.0281453
-0.0286745
-0.028273
-0.0234538
-0.0274338
-0.0144565
-0.0175261
-0.0168271
-0.0181107
-0.00619014
-0.00483388
-0.00555631
-0.0101495
-0.00882661
-0.0112871
-0.00343276
-0.00262032
-0.00288929
-0.00127967
-0.00140804
-0.00150039
-0.00169108
-0.000376802
-7.0161e-05
-4.99078e-05
-0.000126771
-0.000292838
-0.000663737
-0.000624108
-0.000840861
-0.000170022
-7.07169e-05
-1.11587e-05
-1.54259e-06
-1.5637e-06
-1.06856e-06
-2.99776e-06
-1.33124e-06
-2.99795e-06
-2.94637e-06
-7.80066e-06
-7.7553e-06
-2.07084e-05
-2.0415e-05
-2.90415e-05
-1.11794e-05
-7.75448e-06
-9.32974e-06
-4.27258e-06
-5.44032e-07
-3.31597e-07
-3.64066e-07
-1.03933e-06
-3.89271e-07
-4.20859e-07
-1.36172e-07
-1.24032e-07
-1.98899e-07
-5.98914e-08
-4.4921e-08
-6.58197e-08
-7.29288e-08
-1.27625e-07
-6.8341e-08
-4.62343e-08
-5.19124e-08
-3.52842e-08
-3.58877e-08
-4.32031e-08
-3.42393e-08
-4.7774e-08
-3.77119e-08
-3.72571e-08
-3.76989e-08
-3.59659e-08
-5.94241e-08
-4.78495e-08
-5.58843e-08
-5.19199e-08
-5.52147e-08
-4.62125e-08
-6.82643e-08
-5.89164e-08
-3.96306e-08
-3.82139e-08
-5.04482e-08
-4.98847e-08
-4.26515e-08
-5.6535e-08
-6.38814e-08
-7.60175e-08
-8.91579e-08
-1.91078e-07
-3.89869e-08
-7.95506e-08
-2.52695e-07
-2.49303e-07
-7.78663e-08
-1.59349e-06
-1.14078e-05
-7.17712e-05
-0.000386076
-0.000382804
-0.00173126
-0.00638578
-0.0187678
-0.0489798
-0.0466552
-0.0859048
-0.0483257
-0.0592806
-0.089912
-0.0740199
-0.074018
-0.0899122
-0.0942705
-0.0504635
-0.0751626
-0.0653092
-0.0675531
-0.0397692
-0.0530337
-0.0593991
-0.0747263
-0.106121
-0.0752814
-0.0876301
-0.0645679
-0.0804617
-0.0770922
-0.0777271
-0.0790681
-0.0838314
-0.101674
-0.0790708
-0.0942711
-0.0751641
-0.0504632
-0.0425482
-0.0675529
-0.0530333
-0.0397691
-0.0402975
-0.0675453
-0.0545205
-0.0728662
-0.106901
-0.0732749
-0.0800814
-0.0773379
-0.077727
-0.0782442
-0.0721058
-0.0425477
-0.0561973
-0.0689292
-0.0795061
-0.0773397
-0.0768365
-0.080081
-0.0759855
-0.0701873
-0.0396147
-0.0533286
-0.0297824
-0.0282355
-0.0315332
-0.0209132
-0.00704637
-0.0122246
-0.00981173
-0.00972596
-0.0168911
-0.0167191
-0.0104096
-0.00984206
-0.00606581
-0.0123386
-0.00714672
-0.0019229
-0.00366999
-0.000884492
-0.000177548
-3.01562e-05
-2.97845e-05
-4.9159e-05
-6.13441e-05
-3.30543e-05
-1.937e-05
-9.85415e-06
-2.00874e-05
-5.15307e-05
-6.31247e-05
-0.000122745
-0.000119579
-5.06787e-05
-6.25187e-05
-0.000287437
-0.000346766
-0.000641241
-0.000628351
-0.000344952
-0.00137462
-0.00159974
-0.00279651
-0.00276085
-0.001595
-0.00541169
-0.00604446
-0.00988026
-0.00986213
-0.00603486
-0.0131783
-0.0212749
-0.0504506
-0.0495178
-0.0553216
-0.0313064
-0.0372844
-0.0345706
-0.020989
-0.0213481
-0.00719697
-0.00194333
-0.000432922
-8.14083e-05
-1.31624e-05
-1.1151e-05
-3.13183e-05
-2.46116e-05
-2.00397e-05
-1.00916e-05
-2.00428e-05
-5.06463e-05
-6.41907e-05
-0.000122376
-0.000122365
-5.06464e-05
-6.98477e-05
-1.12317e-05
-1.59637e-06
-5.85059e-07
-4.49932e-07
-4.96445e-07
-3.68419e-07
-1.6846e-07
-3.68562e-07
-1.08366e-06
-1.43293e-06
-2.90739e-06
-2.90728e-06
-1.0837e-06
-6.91445e-07
-2.94983e-07
-1.19191e-07
-1.19258e-07
-6.63178e-08
-1.01436e-07
-2.95071e-07
-3.54458e-07
-1.19211e-07
-2.74597e-07
-9.85368e-07
-1.35636e-06
-2.71724e-06
-2.89454e-06
-1.04952e-06
-4.96433e-07
-5.85031e-07
-5.53222e-07
-1.5059e-06
-1.01203e-06
-9.27818e-07
-1.24313e-06
-2.63986e-06
-3.38902e-06
-7.39293e-06
-9.57578e-06
-1.94471e-05
-2.42015e-05
-4.93388e-05
-5.11323e-05
-6.25237e-05
-0.000119586
-0.000122757
-6.31332e-05
-5.06833e-05
-1.9373e-05
-2.00881e-05
-9.85497e-06
-7.67291e-06
-9.67116e-06
-1.95689e-05
-7.69639e-06
-7.39157e-06
-2.72511e-06
-3.46961e-06
-2.74033e-06
-1.30201e-06
-9.93748e-07
-9.58767e-07
-1.28836e-06
-2.66839e-06
-9.54859e-07
-9.38028e-07
-2.94129e-07
-4.36674e-07
-3.00669e-07
-1.02681e-07
-3.08458e-07
-4.49829e-07
-3.0683e-07
-9.51125e-08
-7.34019e-08
-7.36984e-08
-2.09078e-07
-5.7751e-07
-5.63227e-07
-5.71834e-07
-2.74366e-07
-1.57727e-07
-8.19686e-07
-5.48336e-06
-1.88977e-06
-1.32261e-05
-3.48143e-05
-0.000195216
-8.11863e-05
-0.000426904
-0.000931793
-0.000931745
-0.0001952
-0.000122684
-0.00367366
-0.00367384
-0.00188334
-0.00681413
-0.0116034
-0.0116028
-0.0278053
-0.0278061
-0.0195922
-0.0419039
-0.0540558
-0.0324186
-0.0285193
-0.0180031
-0.0273581
-0.0281456
-0.035234
-0.0372844
-0.0524835
-0.0538734
-0.0182198
-0.00616933
-0.00168091
-0.000373872
-6.94482e-05
-1.09974e-05
-7.67276e-06
-7.52414e-06
-9.3855e-06
-1.90632e-05
-2.3809e-05
-4.94952e-05
-6.23798e-05
-0.0001206
-0.000145443
-0.000281966
-0.00029102
-0.000344979
-0.000628382
-0.000641259
-0.000346787
-0.000287455
-0.000291839
-0.000146728
-0.000286192
-0.000351887
-0.000638998
-0.000638979
-0.000286196
-0.000146716
-0.000291824
-0.000180758
-8.11128e-05
-1.32711e-05
-1.97471e-06
-2.95763e-07
-6.91589e-07
-2.59324e-07
-7.56592e-08
-4.37151e-08
-5.53645e-08
-6.22151e-08
-4.90066e-08
-5.70776e-08
-8.93173e-08
-4.81083e-08
-6.08001e-08
-6.14713e-08
-7.27433e-08
-1.91061e-07
-7.39292e-08
-7.81185e-08
-1.72822e-07
-2.45095e-07
-2.39332e-07
-2.28262e-07
-5.60252e-08
-6.78311e-08
-2.02178e-07
-7.32071e-08
-6.02373e-08
-9.01627e-08
-2.8113e-07
-1.00553e-07
-1.67277e-07
-6.57018e-08
-6.39881e-08
-1.54868e-07
-1.6488e-06
-1.39841e-06
-4.56976e-06
-2.76571e-06
-4.31821e-06
-7.33198e-06
-1.21519e-05
-1.07398e-05
-3.13952e-05
-2.00162e-05
-5.07331e-05
-6.13501e-05
-0.000118968
-0.000143855
-0.000281804
-0.000283329
-0.000346193
-0.000634675
-0.000738948
-0.00135368
-0.00139447
-0.000636665
-0.000884558
-0.000877002
-0.00062875
-0.000733547
-0.000627115
-0.000370537
-6.90609e-05
-1.09902e-05
-1.52217e-06
-4.31479e-06
-2.94356e-05
-0.000172942
-0.000170025
-0.000840872
-0.000858796
-0.000858787
-0.00352341
-0.0030862
-0.00534681
-0.00599448
-0.0116346
-0.010365
-0.0168367
-0.0180026
-0.012019
-0.0036365
-0.000887436
-0.000179253
-3.06596e-05
-4.52749e-06
-3.59311e-06
-7.84232e-06
-7.76884e-06
-7.76882e-06
-7.84281e-06
-3.59315e-06
-4.52758e-06
-3.06602e-05
-2.46139e-05
-5.15356e-05
-3.13216e-05
-4.77021e-06
-1.87444e-06
-1.31638e-05
-8.14157e-05
-0.000180767
-0.000192709
-3.30586e-05
-3.01602e-05
-2.97881e-05
-4.91644e-05
-7.73344e-05
-6.96588e-05
-0.000183768
-0.000124796
-0.000291939
-0.000341093
-0.000659486
-0.00141047
-0.0015835
-0.00289603
-0.00559498
-0.00599486
-0.00981214
-0.0103651
-0.0168372
-0.0177731
-0.0147025
-0.0102907
-0.00491387
-0.0124229
-0.00372976
-0.000908345
-0.000383307
-0.000417177
-0.00188425
-0.00176781
-0.00699797
-0.00670927
-0.0208873
-0.0205776
-0.0499063
-0.0369292
-0.0401874
-0.0684041
-0.0645689
-0.0752807
-0.10612
-0.074727
-0.0593995
-0.0679237
-0.0358401
-0.0313071
-0.0267383
-0.0178897
-0.00609184
-0.0016621
-0.00173734
-0.00638709
-0.0116347
-0.0112871
-0.00343278
-0.00352344
-0.00363652
-0.00166446
-0.000372501
-0.000887445
-0.000179255
-0.000742335
-0.00139474
-0.0013659
-0.00162077
-0.00278574
-0.00278572
-0.00136591
-0.000742295
-0.00139471
-0.000892206
-0.000953101
-0.000391123
-0.000192697
-7.15194e-05
-0.00393388
-0.00180146
-0.00368442
-0.00549098
-0.00536281
-0.0031094
-0.0060869
-0.0178682
-0.0524485
-0.0478547
-0.0416739
-0.0525051
-0.0286746
-0.0282733
-0.0561979
-0.0439947
-0.0721053
-0.0689292
-0.0795058
-0.080461
-0.0653112
-0.0876303
-0.0770925
-0.0768385
-0.0786753
-0.0570779
-0.0350222
-0.0315045
-0.0210477
-0.0123501
-0.0104145
-0.031504
-0.050409
-0.0553909
-0.054049
-0.0495817
-0.0539279
-0.0553582
-0.0281914
-0.00712364
-0.00192753
-0.00042993
-0.000892224
-0.000432932
-0.00194329
-0.00368447
-0.00310948
-0.00393399
-0.000953134
-0.000426171
-7.93388e-05
-1.2565e-05
-1.72839e-06
-1.68079e-06
-1.22232e-05
-7.76704e-05
-0.000175875
-0.00011887
-0.000419276
-0.00189668
-0.00363717
-0.00534702
-0.0122253
-0.0123388
-0.00367031
-0.00192299
-0.00714707
-0.00704703
-0.0209142
-0.0495195
-0.031533
-0.0212759
-0.050451
-0.0345712
-0.0131785
-0.0123504
-0.00719702
-0.00685021
-0.0209894
-0.00180171
-0.000177565
-0.000121125
-4.39383e-06
-4.86048e-06
-6.2132e-07
-1.48493e-06
-1.11533e-05
-7.1537e-05
-0.000391226
-0.0120191
-0.00684909
-0.00129696
-0.000278957
-5.01229e-05
-1.91063e-05
-4.76969e-06
-7.6726e-06
-9.67016e-06
-3.82758e-08
-3.96118e-08
-5.88804e-08
-5.64517e-08
-4.36931e-08
-4.26252e-08
-4.99064e-08
-5.03333e-08
-3.5889e-08
-7.59965e-08
-6.39923e-08
-1.18704e-07
-1.08493e-07
-6.6351e-08
-1.01501e-07
-5.62698e-08
-5.53884e-08
-0.000876882
-0.00135573
-0.00158341
-0.0180787
-0.0402973
-0.0525049
-0.0759831
-6.51218e-08
-3.74129e-08
-0.000276155
-0.000325478
-5.92551e-05
-0.00564356
-0.000341066
-0.00160494
-9.38449e-06
-6.23764e-05
-9.0112e-08
-1.02708e-07
-9.51696e-08
-0.0667334
-0.086845
-0.0759408
-0.0766281
-0.0759416
-0.0498423
-0.0540497
1.72658e-07
2.59289e-07
1.87403e-06
1.35622e-06
9.8536e-07
1.04941e-06
2.89454e-06
2.7168e-06
1.30188e-06
9.93663e-07
3.06778e-07
9.51201e-08
7.27159e-08
6.15283e-08
7.34499e-08
7.37527e-08
6.03284e-08
7.32683e-08
6.79856e-08
5.61084e-08
6.57951e-08
6.40883e-08
7.29585e-08
1.0061e-07
1.27726e-07
6.58474e-08
4.50113e-08
6.83179e-08
5.98904e-08
3.74073e-08
5.99365e-08
4.49326e-08
6.5794e-08
7.28674e-08
1.27606e-07
1.00425e-07
2.81022e-07
1.67212e-07
6.40212e-08
6.56887e-08
5.60355e-08
6.78808e-08
7.32335e-08
2.02224e-07
3.00621e-07
3.08398e-07
3.06785e-07
2.09018e-07
7.36959e-08
7.33525e-08
6.1547e-08
7.27705e-08
7.39678e-08
1.91155e-07
7.81286e-08
1.01468e-07
2.95024e-07
3.68435e-07
1.68478e-07
1.19211e-07
2.94955e-07
1.01463e-07
7.80462e-08
1.91148e-07
2.7451e-07
1.19183e-07
3.54399e-07
4.96515e-07
1.08358e-06
1.0835e-06
1.43277e-06
2.90689e-06
3.59296e-06
7.84155e-06
9.85334e-06
7.67244e-06
7.69597e-06
9.66957e-06
1.95648e-05
1.94438e-05
7.39043e-06
3.46976e-06
2.72496e-06
2.74022e-06
1.50085e-06
1.07841e-05
6.72937e-05
0.000359049
0.00160469
0.00587934
0.0174734
0.0570775
0.0677758
0.052669
0.0742038
0.0599829
0.0732738
0.1069
0.0728662
0.0747259
0.106121
0.0752799
0.0645679
0.0876293
0.0751622
0.0653093
0.0425477
0.0561973
0.0504634
0.0942699
0.0899111
0.0740195
0.101674
0.0740169
0.0899113
0.0942696
0.0751629
0.0653095
0.0645681
0.0876293
0.0752798
0.106119
0.074726
0.0728663
0.0545194
0.0542519
0.052669
0.0599832
0.0732739
0.0742038
0.10572
0.0744149
0.0868443
0.0743602
0.105711
0.0741687
0.0728134
0.060019
0.0542325
0.0542326
0.0728137
0.074169
0.10571
0.074363
0.0868439
0.0667323
0.0744124
0.105722
0.0541518
0.0553374
0.071667
0.0498413
0.0553914
0.0540489
0.0527863
0.0539274
0.0553575
0.0539273
0.0371002
0.0350223
0.0350222
0.0679565
0.0527858
0.0540479
0.0553913
0.0498426
0.0553382
0.0541512
0.0527792
0.0539704
0.0553191
0.0538924
0.0525164
0.0533566
0.054328
0.0490532
0.0547415
0.0684029
0.0401872
0.0285187
0.017773
0.0102907
0.00559485
0.00289601
0.00141044
0.000659481
0.000291929
0.000124789
5.07291e-05
2.00143e-05
7.52334e-06
2.76553e-06
9.27648e-07
9.37925e-07
9.54775e-07
9.58679e-07
9.93774e-07
9.85356e-07
1.35622e-06
1.04951e-06
3.54383e-07
1.19228e-07
2.74549e-07
9.50891e-08
2.16072e-07
1.50094e-06
1.07846e-05
6.72963e-05
0.000359057
0.00160472
0.00587938
0.0174734
0.0570773
0.0677757
0.0396145
0.0409341
0.0533285
0.0421343
0.0421342
0.0409342
0.0396146
0.0533286
0.0407726
0.0542512
0.0545197
0.0593988
0.0530327
0.067553
0.0397691
0.0402975
0.0675452
0.0524829
0.0538729
0.0489796
0.0538728
0.0675528
0.0425475
0.043994
0.0561972
0.0483257
0.0483258
0.0439941
0.0671579
0.0412697
0.0416738
0.0416736
0.052505
0.0412693
0.0689289
0.0782448
0.0777265
0.0770909
0.0804611
0.0790676
0.083831
0.0859043
0.046655
0.0335032
0.059347
0.0545276
0.0505806
0.0587111
0.0468304
0.0435536
0.0274335
0.0274333
0.0144565
0.018181
0.0087874
0.0105578
0.00575952
0.00259425
0.00296591
0.00145116
0.00061564
0.000674942
0.000300198
0.000120702
0.000127637
5.22475e-05
2.00054e-05
2.05269e-05
7.82057e-06
2.85857e-06
2.85361e-06
1.03921e-06
3.64002e-07
3.31618e-07
1.36195e-07
1.24046e-07
1.23991e-07
6.82618e-08
4.6306e-08
6.65255e-08
6.88349e-08
7.23175e-08
6.93889e-08
6.93609e-08
7.41781e-08
7.77524e-08
7.47995e-08
7.47529e-08
7.56068e-08
7.96397e-08
7.89783e-08
7.8991e-08
6.64016e-08
7.11203e-08
5.175e-08
5.17222e-08
5.53603e-08
6.208e-08
4.90219e-08
5.70201e-08
4.81214e-08
6.08094e-08
4.75432e-08
6.74711e-08
6.95622e-08
6.39041e-08
7.60644e-08
8.93227e-08
4.97909e-08
5.05098e-08
4.66727e-08
5.96612e-08
4.59805e-08
6.96198e-08
6.9973e-08
6.50999e-08
6.9926e-08
9.09925e-08
2.21446e-07
2.06323e-07
1.50578e-06
1.09968e-05
6.94451e-05
0.000373867
0.00168089
0.00616927
0.0182196
0.018003
0.0273581
0.0267379
0.0270531
0.0273835
0.0173789
0.00985565
0.00549962
0.00278505
0.00139441
0.000636644
0.000291006
0.000121118
5.11287e-05
1.95666e-05
7.69598e-06
2.74024e-06
1.30196e-06
2.71695e-06
2.8941e-06
2.90735e-06
7.76774e-06
1.00899e-05
7.76829e-06
2.00385e-05
2.00856e-05
1.9371e-05
5.06754e-05
5.15287e-05
6.31199e-05
0.000119574
6.25143e-05
5.11276e-05
2.41981e-05
4.93332e-05
4.94914e-05
6.23725e-05
0.000118856
0.00011895
4.91598e-05
2.38086e-05
1.91044e-05
9.57453e-06
7.39203e-06
2.66796e-06
1.28826e-06
9.58632e-07
4.49767e-07
3.08407e-07
2.08997e-07
9.10334e-08
4.74644e-08
6.09121e-08
4.81086e-08
5.69817e-08
4.90372e-08
6.199e-08
5.51848e-08
5.60619e-08
6.6437e-08
6.24515e-08
1.18557e-07
6.39418e-08
6.4337e-08
6.96269e-08
7.60667e-08
6.75748e-08
7.00233e-08
6.5174e-08
1.99458e-07
7.56028e-08
2.52624e-07
1.59626e-06
1.12314e-05
6.98462e-05
0.000372495
0.00166445
0.00608683
0.017868
0.0524481
0.0674678
0.0770188
0.0763241
0.0759831
0.0800803
0.0768401
0.1069
0.079505
0.0530339
0.0397692
0.0402971
0.0525048
0.0286744
0.0281454
0.035234
0.0349208
0.0368917
0.0387888
0.0363883
0.0368191
0.0274214
0.0181147
0.0173273
0.0170135
0.0271205
0.0181045
0.021275
0.0504508
0.0495187
0.0499059
0.0540552
0.0419034
0.0195917
0.0205792
0.0324185
0.0208879
0.00699729
0.00670874
0.00681462
0.00188337
0.00176768
0.0037298
0.0124225
0.0122248
0.0168371
0.0168909
0.00972603
0.009842
0.0104095
0.0167191
0.018079
0.0178895
0.0524829
0.067545
0.0407726
0.0701873
0.0773397
0.0689291
0.0721059
0.0504631
0.0592788
0.055201
0.0498056
0.0537011
0.0364537
0.0178197
0.00639867
0.00180502
0.000414263
7.98355e-05
1.34079e-05
2.08154e-06
3.442e-07
1.08009e-07
1.57734e-07
1.57679e-07
2.74367e-07
1.88974e-06
1.3225e-05
8.1184e-05
0.000426909
0.000383278
0.000908347
0.00188411
0.000417151
7.73299e-05
6.9651e-05
0.000183764
0.000175858
0.000281793
0.000283317
0.000118862
0.000120591
0.000145433
0.000281952
0.00063465
0.000738936
0.00135362
0.00277919
0.00310279
0.00533001
0.00606579
0.00537161
0.00274851
0.00308632
0.00534691
0.00981173
0.010365
0.0116345
0.00609174
0.00166207
0.00160497
0.00136179
0.000627083
0.000733505
0.00135576
0.00276135
0.00158347
0.00363693
0.00704659
0.0209132
0.0313065
0.0358396
0.0679227
0.0593988
0.0369289
0.031533
0.0679947
0.0345708
0.0553891
0.0504089
0.0213484
0.0209919
0.0131777
0.0123383
0.00714665
0.00192288
0.00189654
0.000419239
7.76643e-05
1.22217e-05
1.21507e-05
1.07376e-05
3.13937e-05
2.97855e-05
4.91585e-05
4.94923e-05
1.91046e-05
1.94444e-05
2.41988e-05
4.93361e-05
6.23767e-05
6.90585e-05
0.00037053
0.000346181
0.000172939
0.000143849
0.000118958
6.13431e-05
0.000170023
0.000300207
0.000278955
0.000674967
0.00061568
0.00145126
0.00129694
0.00296603
0.0025944
0.0057598
0.00491385
0.010558
0.00878782
0.0181815
0.0147024
0.0301839
0.0245726
0.0437934
0.0363007
0.0234539
0.0282729
0.028273
0.0437935
0.0245726
0.0301839
0.0234539
0.0435539
0.0335032
0.0468306
0.0393667
0.0587115
0.0505806
0.0545278
0.0547416
0.0593475
0.055201
0.0592804
0.0721056
0.0790689
0.0777282
0.0804607
0.0770888
0.0795047
0.0773379
0.0786753
0.0669855
0.0478545
0.0187362
0.0187676
0.0181105
0.0144567
0.0175258
0.0101498
0.00555633
0.00288945
0.00288931
0.0012797
0.00140803
0.000624108
0.000663749
0.000276159
0.000292839
0.000122689
0.000126778
4.99095e-05
5.13428e-05
2.04155e-05
2.07079e-05
7.75487e-06
7.80055e-06
2.9464e-06
2.99796e-06
1.06855e-06
1.065e-06
3.89236e-07
4.20886e-07
1.98853e-07
4.2086e-07
1.36145e-07
3.31565e-07
3.64013e-07
1.0393e-06
1.012e-06
2.85364e-06
2.85872e-06
7.82072e-06
7.67234e-06
2.0527e-05
2.00051e-05
5.2247e-05
5.01201e-05
0.000127639
0.000120709
0.000122691
0.000126776
5.92569e-05
5.13414e-05
2.07081e-05
7.80046e-06
2.99799e-06
1.33133e-06
1.06511e-06
3.89269e-07
5.43942e-07
4.27245e-06
2.94631e-06
5.48327e-06
3.48149e-05
0.000195224
0.000931845
0.00367391
0.0116032
0.0278053
0.0278051
0.0498065
0.0419034
0.0195913
0.0116028
0.0175259
0.00882643
0.0101495
0.00483384
0.00555631
0.00262031
0.00343273
0.0061901
0.00483396
0.00564354
0.00169107
0.00127973
0.00140805
0.000663777
0.000292841
0.000276162
0.000376803
0.000325488
7.01612e-05
4.99088e-05
1.11795e-05
7.75494e-06
9.32976e-06
1.56366e-06
1.06853e-06
2.11451e-07
8.71037e-08
6.64958e-08
4.62395e-08
4.53361e-08
3.84228e-08
3.84584e-08
4.55022e-08
5.28281e-08
5.5249e-08
4.29454e-08
7.02741e-08
6.37115e-08
5.92425e-08
6.21528e-08
8.74167e-08
4.37722e-08
5.49895e-08
4.3277e-08
4.92777e-08
7.63956e-08
4.33674e-08
3.40082e-08
3.5747e-08
3.53072e-08
3.66041e-08
4.6269e-08
3.52874e-08
5.27564e-08
4.29496e-08
5.52566e-08
5.91803e-08
6.37501e-08
6.22055e-08
5.92633e-08
6.50849e-08
6.99924e-08
6.96297e-08
4.59486e-08
5.94829e-08
4.66187e-08
5.04278e-08
3.77438e-08
3.5863e-08
3.52075e-08
5.19407e-08
5.91733e-08
1.79764e-07
5.58443e-08
4.77988e-08
3.76546e-08
3.592e-08
3.72895e-08
5.58415e-08
5.19152e-08
6.87185e-08
1.7979e-07
5.43975e-07
1.54259e-06
1.11586e-05
7.07162e-05
0.000382802
0.00173125
0.00638574
0.0112871
0.00882671
0.011287
0.0182196
0.0147023
0.0285183
0.0180026
0.0168367
0.0103648
0.00972577
0.0060657
0.00532985
0.00310264
0.00277911
0.00278494
0.00159497
0.00137458
0.00139468
0.00159966
0.00276074
0.00541152
0.00549084
0.00604418
0.00986175
0.00603463
0.00549952
0.00985562
0.00984176
0.016719
0.0104095
0.0173785
0.0181047
0.0170132
0.017327
0.0181145
0.0271205
0.0273835
0.0270527
0.0180788
0.0168907
0.0267375
0.0273576
0.0358398
0.0281453
0.0352339
0.0372843
0.0349209
0.0282354
0.0368915
0.0363185
0.0387888
0.0368194
0.0363877
0.0504089
0.049581
0.0315041
0.0281915
0.0269226
0.0181305
0.0167986
0.0167988
0.0104142
0.00988003
0.00604425
0.00549093
0.00541164
0.00986185
0.00603479
0.00276084
0.00159974
0.00139472
0.00137462
0.00159504
0.000628358
0.000346771
0.000291826
0.000287437
0.000344963
0.000426143
7.93319e-05
1.25637e-05
1.72825e-06
1.68083e-06
1.64872e-06
1.39833e-06
4.56945e-06
4.31798e-06
7.33125e-06
7.39282e-06
2.66812e-06
2.72514e-06
3.46963e-06
7.39087e-06
9.57505e-06
1.09898e-05
1.52209e-06
1.28818e-06
5.53143e-07
4.36782e-07
2.94078e-07
9.00851e-08
2.28261e-07
1.54802e-07
5.71777e-07
5.63178e-07
2.39276e-07
6.0361e-08
1.02679e-07
5.77457e-07
4.39346e-06
3.01572e-05
0.000177551
0.000884499
0.00367003
0.00393389
0.00685005
0.00719684
0.00194314
0.00180161
0.000953103
0.000892167
0.00368429
0.00279644
0.00278564
0.00162076
0.00136588
0.00136589
0.00074231
0.000638975
0.000351867
0.000286184
0.000286184
0.00014672
0.000122749
6.31255e-05
5.15316e-05
5.06774e-05
0.000119581
6.25183e-05
0.000192701
0.000391207
0.000432916
8.14096e-05
7.15174e-05
3.30562e-05
3.13187e-05
2.00867e-05
9.85385e-06
7.8425e-06
7.67199e-06
1.93713e-05
9.66987e-06
4.85982e-06
1.11518e-05
1.31632e-05
1.87421e-06
1.48469e-06
6.2131e-07
2.45067e-07
1.72725e-07
2.59325e-07
7.57582e-08
4.36523e-08
5.40277e-08
4.42633e-08
5.41827e-08
4.35566e-08
7.57951e-08
6.62395e-08
1.08377e-07
2.95693e-07
1.97448e-06
4.76985e-06
3.59301e-06
4.52743e-06
4.31469e-06
3.38923e-06
2.63989e-06
1.24288e-06
2.94347e-05
2.38085e-05
1.90626e-05
9.38404e-06
2.90409e-05
2.04149e-05
2.90411e-05
0.000170022
0.000840862
0.00168086
0.0061692
0.0049137
0.0102901
0.00599446
0.00534674
0.00308618
0.00274835
0.00160489
0.00135357
0.000738896
0.000634621
0.000636608
0.000344945
0.000287429
0.000291819
0.000346747
0.000628331
0.000641223
0.000742307
0.00063896
0.000892163
0.00192741
0.00712341
0.0210474
0.0123497
0.0123499
0.0315034
0.0281915
0.0274211
0.0269227
0.0297824
0.0286745
0.0116345
0.0178895
0.00609172
0.00638706
0.00352342
0.00343277
0.00262037
0.000840869
0.000624143
0.000858787
0.00173732
0.000386073
7.17698e-05
1.14077e-05
1.59346e-06
2.49234e-07
2.34668e-07
2.06374e-07
1.50581e-06
1.09968e-05
6.94451e-05
0.000373861
0.000278945
0.000659426
0.000341072
0.000281784
0.000143841
0.000283306
0.000346169
0.000281943
0.000145423
0.000120583
0.000121108
0.000290998
0.000177532
0.000175834
0.000183734
0.000426879
0.00188324
0.00681391
0.00367366
0.000931771
0.000195213
3.48136e-05
8.11816e-05
1.32249e-05
5.48322e-06
8.19628e-07
1.88954e-06
2.74349e-07
1.54791e-07
5.71717e-07
9.27737e-07
1.24289e-06
9.37927e-07
4.36738e-07
3.00657e-07
1.02675e-07
2.21418e-07
1.52206e-06
1.09894e-05
6.90572e-05
0.000370525
0.00166205
0.00352339
0.000858781
0.000733472
0.000628681
0.000627051
0.00136171
0.00135569
0.00141037
0.00158334
0.0028958
0.00129689
0.00559472
0.00372934
0.0124217
0.0177725
0.0324187
0.040187
0.0369288
0.0543293
0.0490518
0.0684024
0.0540503
0.0499034
0.0533562
0.0525169
0.0679226
0.0538922
0.0553213
0.0539716
0.0679942
0.0527794
0.0504502
0.0495178
0.031307
0.0208861
0.0205784
0.00699684
0.00670834
0.00188387
0.00176744
0.00090821
0.00087682
0.00363666
0.00276121
0.00537148
0.0122243
0.00981152
0.0209126
0.00704625
0.00189638
0.000419197
0.000417084
0.00038322
7.73166e-05
6.13426e-05
5.07296e-05
2.00141e-05
9.38398e-06
7.33115e-06
3.38891e-06
2.63976e-06
2.76535e-06
1.01189e-06
7.52339e-06
7.67224e-06
4.56902e-06
3.13899e-05
6.96446e-05
2.97812e-05
1.90618e-05
1.21491e-05
1.0737e-05
1.64865e-06
1.39825e-06
2.2825e-07
9.01257e-08
2.81076e-07
1.67288e-07
7.65461e-08
4.33646e-08
5.51013e-08
4.38998e-08
8.73845e-08
2.02192e-07
2.94145e-07
5.63101e-07
9.54762e-07
4.31728e-06
4.39288e-06
3.01528e-05
7.76555e-05