/*--------------------------------*- C++ -*----------------------------------*\
| =========                 |                                                 |
| \\      /  F ield         | OpenFOAM: The Open Source CFD Toolbox           |
|  \\    /   O peration     | Version:  2306                                  |
|   \\  /    A nd           | Website:  www.openfoam.com                      |
|    \\/     M anipulation  |                                                 |
\*---------------------------------------------------------------------------*/
FoamFile
{
    version     2.0;
    format      ascii;
    arch        "LSB;label=32;scalar=64";
    class       volVectorField;
    location    "0.1";
    object      flux;
}
// * * * * * * * * * * * * * * * * * * * * * * * * * * * * * * * * * * * * * //

dimensions      [0 1 -1 1 0 0 0];

internalField   nonuniform List<vector> 
2658
(
(7.54938e-07 7.40794e-07 -4.15322e-06)
(1.1934e-06 4.67657e-07 -3.52542e-06)
(1.49575e-07 5.71863e-08 -6.73521e-07)
(1.18766e-08 9.22234e-10 -4.50804e-07)
(-2.54041e-07 -2.51284e-07 -9.40599e-07)
(-2.05585e-07 2.95358e-07 -9.21762e-07)
(7.99616e-08 -1.02031e-07 -3.41948e-07)
(8.43813e-08 8.34844e-08 -3.44278e-07)
(1.53004e-09 1.19975e-08 -4.50627e-07)
(2.96263e-07 -2.09883e-07 -9.21492e-07)
(-3.55297e-07 -8.03664e-08 -1.98373e-06)
(-5.37582e-07 -1.89894e-06 -2.71896e-06)
(7.42984e-07 1.81299e-06 -5.10746e-06)
(6.579e-07 1.81523e-06 -5.37879e-06)
(4.28428e-07 1.60593e-06 -4.7696e-06)
(1.2585e-07 1.56654e-06 -4.83452e-06)
(-1.16981e-08 1.62122e-06 -5.4894e-06)
(-1.34792e-07 1.55542e-06 -4.82983e-06)
(-4.27773e-07 1.63164e-06 -4.71861e-06)
(-6.9079e-07 1.79764e-06 -5.28857e-06)
(-8.48305e-07 1.78262e-06 -5.00165e-06)
(-1.88405e-06 1.7367e-06 -4.5738e-06)
(-1.90306e-06 6.4802e-07 -4.85766e-06)
(1.06341e-06 -2.05808e-07 -2.56434e-06)
(-3.57162e-07 3.18191e-07 -4.47153e-06)
(-9.26705e-07 1.58799e-06 -5.06299e-06)
(-1.93604e-06 -2.82578e-07 -4.96234e-06)
(-1.75482e-07 1.26166e-07 -4.77846e-06)
(-1.39928e-06 1.28676e-06 -5.4302e-06)
(-1.7219e-06 -7.86962e-11 -5.32706e-06)
(-1.39925e-06 -1.28679e-06 -5.43011e-06)
(-1.93608e-06 2.82601e-07 -4.96231e-06)
(-9.26749e-07 -1.58808e-06 -5.06289e-06)
(-1.9031e-06 -6.48039e-07 -4.85748e-06)
(-3.57116e-07 -3.18175e-07 -4.47143e-06)
(1.06338e-06 2.05835e-07 -2.56421e-06)
(-6.0529e-08 1.97352e-07 -2.27344e-06)
(1.90851e-07 9.06623e-08 -5.23214e-06)
(-1.88394e-06 -1.7371e-06 -4.57377e-06)
(-8.48519e-07 -1.78267e-06 -5.00175e-06)
(-6.90806e-07 -1.79774e-06 -5.2887e-06)
(-4.2776e-07 -1.6317e-06 -4.71863e-06)
(-1.34908e-07 -1.5553e-06 -4.82978e-06)
(5.29772e-08 5.22725e-07 -4.87669e-06)
(-1.82619e-07 1.63248e-07 -1.85934e-06)
(1.72887e-07 1.79694e-07 -1.84764e-06)
(-3.55294e-07 8.03606e-08 -1.98374e-06)
(-2.57699e-08 5.4869e-07 -4.89514e-06)
(1.25704e-07 -1.56681e-06 -4.83464e-06)
(4.28451e-07 -1.60593e-06 -4.76962e-06)
(6.5793e-07 -1.8151e-06 -5.37871e-06)
(7.42999e-07 -1.813e-06 -5.10752e-06)
(1.8289e-06 -1.81271e-06 -4.6896e-06)
(-2.174e-07 2.11773e-07 -5.56479e-06)
(1.82587e-06 -7.35025e-07 -5.11029e-06)
(1.6107e-06 -4.25516e-07 -4.76578e-06)
(-5.53212e-07 3.07786e-08 -4.89079e-06)
(-1.76705e-07 -1.69409e-07 -1.84894e-06)
(-1.62041e-06 -4.70901e-12 -2.69322e-06)
(1.55687e-06 1.34322e-07 -4.8339e-06)
(-5.53189e-07 -3.07659e-08 -4.89084e-06)
(1.61074e-06 4.25516e-07 -4.76588e-06)
(1.82587e-06 7.35064e-07 -5.11034e-06)
(-2.17366e-07 -2.11813e-07 -5.56481e-06)
(-8.8502e-08 -8.8648e-08 -2.30342e-06)
(-1.89857e-06 -5.26638e-07 -2.72422e-06)
(-8.39349e-08 -3.59708e-07 -1.98008e-06)
(-8.44546e-08 -3.66048e-08 -1.14583e-06)
(-1.5291e-07 -3.20971e-07 -8.902e-07)
(-1.52924e-07 3.20971e-07 -8.90177e-07)
(1.21445e-08 1.18257e-12 -4.3802e-07)
(5.44617e-08 1.07207e-07 -3.26303e-07)
(-1.55223e-08 -3.91159e-09 -1.40599e-07)
(-2.70083e-08 3.29427e-08 -1.09578e-07)
(1.38133e-09 -8.53516e-10 -4.90016e-08)
(-3.04771e-08 -2.99644e-08 -1.13171e-07)
(3.26786e-08 -2.75413e-08 -1.09289e-07)
(-8.29924e-10 1.54801e-09 -4.8886e-08)
(-1.05416e-08 7.40898e-09 -3.48713e-08)
(1.07499e-08 4.32627e-09 -3.32549e-08)
(-3.94765e-08 -1.90169e-08 -1.08475e-07)
(-4.26754e-09 -1.51913e-08 -1.40551e-07)
(1.08177e-07 5.13045e-08 -3.25151e-07)
(-1.01872e-07 8.23268e-08 -3.42958e-07)
(1.99418e-08 1.98339e-08 -5.07931e-07)
(1.14424e-09 1.21014e-09 -5.68518e-08)
(5.63898e-11 7.33215e-11 -4.86939e-09)
(1.88507e-13 2.41035e-12 -3.37578e-10)
(-2.64012e-13 -5.84558e-14 -1.98857e-11)
(-2.92647e-14 -8.7485e-15 -1.03147e-12)
(-2.27364e-15 5.31577e-15 -4.96374e-14)
(1.24982e-16 -1.30917e-15 4.73658e-16)
(2.05649e-15 -5.68009e-15 1.7436e-15)
(-6.98521e-16 -1.38606e-15 7.3382e-15)
(-2.78631e-15 -3.31206e-15 3.04348e-15)
(7.16663e-15 -4.6068e-15 -3.68426e-15)
(2.00323e-15 -1.09445e-15 -1.49649e-15)
(-4.59355e-15 4.02238e-15 9.87861e-15)
(6.60218e-16 4.74211e-15 2.93586e-15)
(-6.22257e-15 1.08624e-14 3.21797e-15)
(-4.2945e-15 -3.58835e-15 4.01082e-15)
(-3.97265e-15 5.02402e-15 4.72204e-15)
(-3.56881e-15 6.11891e-15 -9.4499e-16)
(3.79193e-15 5.81773e-15 9.72282e-15)
(2.13265e-15 -1.58941e-15 -2.74291e-15)
(-2.48477e-15 -1.963e-15 5.67806e-15)
(-4.2243e-16 2.24011e-15 1.32791e-14)
(2.99018e-15 -2.70991e-16 -8.48206e-15)
(5.37957e-15 4.39886e-16 -2.76368e-15)
(4.3169e-15 -2.50891e-15 -7.90012e-15)
(-2.0429e-15 -1.39395e-15 -1.83746e-15)
(-5.4962e-17 -2.55966e-15 7.85172e-17)
(-2.68498e-15 -4.72862e-15 2.06253e-14)
(-2.86208e-15 2.52444e-15 6.73708e-15)
(-2.07127e-15 1.27613e-15 2.60634e-16)
(2.16171e-15 -3.56026e-15 3.44563e-15)
(2.53593e-15 4.64693e-15 -6.20078e-15)
(1.25574e-15 -1.88671e-15 8.55595e-15)
(2.77187e-15 -8.04715e-15 5.34362e-15)
(5.55308e-15 1.58852e-15 -2.56679e-15)
(2.3635e-15 -1.64067e-15 5.53583e-15)
(-4.96629e-15 1.64847e-15 -9.11594e-16)
(-4.05223e-16 -2.40132e-17 -1.60888e-15)
(2.16121e-15 -1.49299e-15 1.15357e-14)
(6.87859e-15 4.18343e-16 3.73744e-16)
(8.98553e-16 1.97498e-15 5.33208e-15)
(-2.53938e-15 6.25108e-15 -5.36931e-15)
(1.31235e-15 -1.51514e-15 4.18848e-16)
(9.54686e-16 2.84585e-15 -4.25487e-15)
(2.94559e-15 -9.463e-15 7.10923e-15)
(-1.57863e-15 2.50325e-15 9.47176e-15)
(1.72222e-15 -6.25287e-15 1.38389e-14)
(-6.37634e-15 -6.00816e-15 -7.27235e-15)
(-1.36065e-15 6.22349e-15 -1.65941e-14)
(2.39408e-15 1.87317e-15 4.71594e-15)
(2.41486e-15 3.20647e-15 -2.18414e-15)
(-3.651e-15 -9.19511e-16 -4.09573e-15)
(-4.84696e-15 -2.16166e-15 -3.01204e-15)
(-2.94075e-15 2.54573e-15 -5.30234e-15)
(-2.69991e-15 2.8371e-15 -8.35717e-15)
(-4.26566e-15 3.46068e-16 4.48566e-15)
(-5.08874e-15 -2.00029e-15 -6.06902e-15)
(-1.07193e-15 1.62263e-15 -2.82844e-15)
(-2.60657e-16 5.35977e-15 2.02009e-15)
(-7.12281e-15 5.69396e-15 -3.41192e-14)
(-5.28063e-15 -3.30831e-15 -1.39107e-14)
(-2.39568e-15 4.84621e-15 -5.51435e-15)
(-4.16019e-15 3.41123e-15 3.41504e-16)
(-2.80305e-15 1.99861e-15 -1.70692e-15)
(-9.16912e-15 4.53378e-15 -1.26578e-14)
(-6.22106e-15 1.93354e-15 -6.38561e-15)
(-6.17728e-16 -3.19554e-16 -1.49276e-14)
(-1.02193e-14 7.94135e-16 -5.84183e-15)
(-1.06554e-15 -1.1245e-14 -1.15131e-14)
(-2.54293e-15 4.7739e-15 -4.70901e-15)
(1.95043e-15 8.3068e-16 6.7542e-15)
(-8.55572e-15 4.23788e-15 1.10195e-15)
(9.90993e-16 -1.41743e-14 4.11269e-15)
(3.68863e-15 1.19984e-14 9.51981e-15)
(2.55209e-15 -1.91626e-15 6.19506e-15)
(6.19951e-15 -2.35284e-15 6.26843e-15)
(2.64371e-15 8.08332e-15 -3.66915e-15)
(-2.78129e-15 -3.15868e-15 -7.14838e-15)
(-1.12388e-15 -2.48762e-15 3.08031e-15)
(3.38309e-15 -2.75089e-15 1.13442e-14)
(-3.00479e-16 1.3612e-15 6.31249e-16)
(2.70628e-15 -4.60994e-15 6.44479e-15)
(4.90167e-15 1.4829e-15 1.50566e-15)
(2.37398e-16 -6.1146e-15 2.48079e-14)
(-6.41458e-15 -4.87769e-15 5.62579e-15)
(-1.66411e-14 -1.12555e-14 -3.25285e-14)
(2.95894e-14 2.96292e-14 -8.85052e-14)
(-8.39751e-14 -3.15418e-14 -3.98964e-13)
(6.67236e-13 5.91927e-13 -1.93777e-12)
(-1.8841e-12 -9.71288e-13 -8.5942e-12)
(1.28468e-11 1.063e-11 -3.81517e-11)
(-3.62504e-11 -2.17745e-11 -1.59342e-10)
(2.16084e-10 1.65788e-10 -6.60254e-10)
(-6.04088e-10 -4.09194e-10 -2.55176e-09)
(3.09776e-09 2.16923e-09 -9.66001e-09)
(-8.34457e-09 -6.28563e-09 -3.36767e-08)
(3.59807e-08 2.2729e-08 -1.12168e-07)
(-8.96628e-08 -7.47897e-08 -3.4071e-07)
(3.11756e-07 1.68896e-07 -9.70784e-07)
(-3.01343e-07 1.84169e-07 -9.13355e-07)
(3.17805e-07 1.55534e-07 -8.82636e-07)
(-3.25289e-07 1.47909e-07 -8.95261e-07)
(2.96255e-07 2.09891e-07 -9.21477e-07)
(-2.54048e-07 2.51276e-07 -9.4058e-07)
(1.18775e-08 -9.22748e-10 -4.50792e-07)
(-2.05567e-07 -2.9536e-07 -9.21766e-07)
(-8.39484e-08 3.5972e-07 -1.98005e-06)
(-1.89853e-06 5.26616e-07 -2.72422e-06)
(-8.84895e-08 8.86476e-08 -2.30341e-06)
(-5.37585e-07 1.89892e-06 -2.71897e-06)
(3.33485e-07 -3.30538e-07 -4.09556e-06)
(1.99424e-08 -1.98344e-08 -5.07929e-07)
(1.14428e-09 -1.21028e-09 -5.68511e-08)
(5.62846e-11 -7.32559e-11 -4.86934e-09)
(1.79064e-13 -2.40673e-12 -3.37578e-10)
(-2.67021e-13 6.59044e-14 -1.98788e-11)
(-3.24838e-14 1.57929e-14 -1.02488e-12)
(1.09175e-15 1.04952e-15 -5.15243e-14)
(-1.14662e-15 1.77301e-15 -1.02391e-14)
(-3.08741e-15 6.75078e-16 -4.30505e-15)
(1.19754e-15 1.30052e-15 -7.04174e-15)
(-3.37435e-15 2.97932e-15 -4.63667e-15)
(1.99608e-15 1.23841e-16 -5.50582e-15)
(9.76751e-15 -1.90846e-15 -1.61653e-15)
(7.36082e-15 4.62942e-16 -1.29591e-15)
(3.90779e-15 -1.68064e-15 -1.61141e-16)
(9.03992e-15 8.96888e-16 8.11015e-15)
(-3.93225e-16 -6.69573e-15 2.61028e-15)
(6.81628e-15 -3.67403e-15 -2.02529e-15)
(1.20222e-14 4.88807e-16 -9.42294e-15)
(1.5704e-15 2.60558e-17 -8.67646e-15)
(-5.95846e-15 9.15023e-15 1.1803e-14)
(-2.84681e-15 -2.21231e-15 8.42979e-15)
(-3.03543e-15 -7.13592e-16 1.19945e-14)
(-3.2687e-15 1.7201e-15 8.34584e-15)
(-4.01681e-15 -7.52625e-15 -1.10878e-14)
(5.12103e-15 -3.14818e-15 -5.92111e-15)
(2.82571e-15 5.7821e-16 3.50969e-15)
(1.70716e-15 -3.67053e-15 -3.5966e-15)
(2.10497e-15 -4.99744e-15 2.69299e-15)
(-3.513e-15 -7.02162e-16 6.87746e-15)
(-3.3121e-15 1.02403e-15 -3.90411e-15)
(-8.81745e-16 -3.84363e-15 1.02582e-14)
(1.50919e-15 3.38407e-15 5.39399e-15)
(-1.8625e-15 -5.0297e-16 1.52575e-14)
(5.92065e-15 -1.63032e-15 -1.04734e-15)
(3.79354e-16 6.38887e-16 6.18856e-15)
(5.53812e-15 -8.75871e-16 4.22022e-15)
(9.73762e-16 -4.60477e-16 2.04681e-15)
(-1.78337e-15 6.42508e-15 1.91843e-15)
(8.22193e-16 1.56325e-15 1.07913e-15)
(9.70899e-16 -2.25919e-15 2.43074e-15)
(-6.02901e-15 -8.164e-15 6.24062e-16)
(-5.91666e-15 -7.56595e-15 8.49067e-15)
(1.14695e-15 -3.60783e-15 6.95901e-16)
(3.07822e-15 6.89002e-17 -3.14078e-15)
(1.72004e-15 1.91274e-16 9.17188e-15)
(3.98845e-15 1.54491e-15 3.24985e-15)
(2.94013e-15 4.31975e-16 -4.60152e-15)
(3.36499e-15 -1.04366e-15 -7.50607e-15)
(-2.08891e-15 -1.27742e-15 6.98891e-16)
(-6.91094e-16 9.56961e-16 -9.74703e-15)
(-3.9422e-16 -8.57093e-15 1.00902e-15)
(6.3194e-15 -6.86549e-15 6.80156e-16)
(-2.00732e-15 1.94101e-15 9.25234e-15)
(4.01436e-15 1.26106e-15 2.54781e-15)
(-2.54483e-15 2.10349e-15 4.69852e-15)
(-2.7764e-15 -1.45689e-15 -4.93918e-15)
(5.72456e-15 -4.7664e-15 2.1946e-15)
(2.542e-15 -5.91784e-15 -3.68617e-15)
(-7.25084e-15 -8.85333e-15 -1.66709e-14)
(9.88397e-16 3.60617e-15 -1.37618e-14)
(1.63935e-15 -3.3916e-15 -1.65144e-14)
(-1.84834e-14 6.90725e-15 -8.31165e-14)
(6.74339e-15 -2.41752e-14 -9.33782e-14)
(1.41374e-13 -1.324e-13 -3.86473e-13)
(-3.0653e-13 1.96164e-13 -1.77758e-12)
(1.0633e-13 -4.03105e-13 -2.20317e-12)
(2.80736e-12 -2.52457e-12 -8.25625e-12)
(-6.58813e-12 4.64613e-12 -3.53971e-11)
(1.46034e-12 -7.05547e-12 -4.30043e-11)
(4.90084e-11 -4.33769e-11 -1.54359e-10)
(-1.24641e-10 9.4047e-11 -6.23054e-10)
(1.58988e-11 -9.70239e-11 -7.35282e-10)
(7.40244e-10 -6.41986e-10 -2.50394e-09)
(-1.98198e-09 1.59516e-09 -9.29184e-09)
(1.21604e-10 -1.0522e-09 -1.05424e-08)
(9.32628e-09 -7.82713e-09 -3.34519e-08)
(-2.47152e-08 2.15231e-08 -1.10319e-07)
(9.01126e-10 -8.39858e-09 -1.18235e-07)
(9.48419e-08 -7.37463e-08 -3.38864e-07)
(-2.09823e-07 2.07209e-07 -9.68658e-07)
(-2.94029e-08 -6.88565e-08 -1.02191e-06)
(8.10294e-07 -5.87966e-07 -2.345e-06)
(1.40896e-07 -4.32935e-07 -2.09226e-06)
(1.55269e-06 -1.07509e-06 -3.42981e-06)
(1.55266e-06 1.07509e-06 -3.42978e-06)
(-1.75442e-07 -1.26103e-07 -4.77834e-06)
(7.09224e-07 -4.9562e-07 -5.70056e-06)
(-8.16474e-08 6.15076e-07 -3.97929e-06)
(6.54238e-07 5.45394e-07 -3.50201e-06)
(7.0634e-08 -2.27088e-12 -5.92218e-06)
(-3.16077e-07 -3.2861e-07 -3.17258e-06)
(-3.16086e-07 3.28624e-07 -3.17263e-06)
(4.08272e-07 3.64622e-07 -3.20064e-06)
(-5.18152e-09 7.83381e-12 -5.88232e-06)
(-4.41235e-07 -4.31978e-07 -3.23959e-06)
(-4.41246e-07 4.32005e-07 -3.23962e-06)
(9.64728e-08 1.82338e-07 -3.25278e-06)
(-2.30406e-07 1.37544e-11 -6.10893e-06)
(-9.25413e-07 -1.42039e-06 -4.66782e-06)
(-9.25417e-07 1.42039e-06 -4.66782e-06)
(5.63849e-07 -1.24236e-06 -7.91696e-06)
(1.68438e-06 2.80911e-11 -1.21934e-05)
(5.63851e-07 1.24235e-06 -7.91697e-06)
(8.02174e-07 -9.48584e-07 -8.09305e-06)
(1.88017e-06 6.27022e-07 -1.20825e-05)
(8.94909e-07 1.43359e-06 -8.20149e-06)
(1.11851e-06 1.10979e-06 -9.6421e-06)
(8.66656e-07 8.60549e-07 -6.23246e-06)
(-1.65062e-06 -1.64413e-06 -5.90728e-06)
(-9.47133e-07 9.63068e-07 -4.59265e-06)
(5.14596e-07 9.98417e-08 -5.18074e-06)
(6.66648e-07 8.71268e-08 -8.48122e-06)
(-4.4599e-08 -4.19608e-08 -6.75195e-06)
(9.64633e-08 -1.8231e-07 -3.25276e-06)
(-1.24773e-07 -1.24024e-07 -3.21398e-06)
(-3.04186e-07 -3.09425e-07 -6.30095e-06)
(9.77721e-07 -9.36765e-07 -4.62753e-06)
(-9.45771e-07 7.96108e-07 -8.09975e-06)
(6.33409e-07 1.85151e-06 -1.20851e-05)
(1.444e-06 8.8705e-07 -8.20894e-06)
(8.08875e-07 8.02444e-07 -8.88721e-06)
(-5.09489e-07 -5.11522e-07 -8.54902e-06)
(-6.47232e-07 2.36896e-11 -8.61866e-06)
(-5.09455e-07 5.11556e-07 -8.54899e-06)
(-3.04188e-07 3.09428e-07 -6.30096e-06)
(-9.471e-07 -9.63066e-07 -4.59263e-06)
(-1.65061e-06 1.64411e-06 -5.90731e-06)
(8.94908e-07 -1.4337e-06 -8.20118e-06)
(1.88023e-06 -6.27072e-07 -1.20826e-05)
(8.02226e-07 9.48572e-07 -8.09297e-06)
(5.14613e-07 -9.98689e-08 -5.1808e-06)
(6.66664e-07 -8.7119e-08 -8.48122e-06)
(8.08968e-07 -8.02333e-07 -8.88715e-06)
(1.44385e-06 -8.87078e-07 -8.20932e-06)
(6.33304e-07 -1.85149e-06 -1.20849e-05)
(-9.45769e-07 -7.96117e-07 -8.09983e-06)
(9.77696e-07 9.3676e-07 -4.62753e-06)
(1.06874e-07 -5.16688e-07 -5.18026e-06)
(1.249e-06 -5.87011e-07 -7.96627e-06)
(-1.2612e-08 -1.67893e-06 -1.22005e-05)
(-1.25188e-06 -5.50427e-07 -7.91593e-06)
(1.44692e-06 8.73838e-07 -4.69879e-06)
(-2.9671e-09 2.35086e-07 -6.11042e-06)
(-1.88488e-07 -9.25424e-08 -3.23364e-06)
(-1.43795e-06 9.33416e-07 -4.66529e-06)
(5.38263e-09 -2.33855e-07 -3.51028e-06)
(-1.60607e-07 -3.07857e-07 -3.70491e-06)
(-1.20056e-09 -3.89627e-08 -5.11084e-07)
(1.22174e-10 -3.94482e-09 -5.78214e-08)
(-1.324e-11 -2.88052e-10 -4.85884e-09)
(-2.19449e-12 -1.51643e-11 -3.25313e-10)
(-1.67955e-13 -5.76159e-13 -1.83533e-11)
(-9.21953e-15 -1.37828e-14 -9.05608e-13)
(-1.01686e-15 -1.48448e-16 -4.34123e-14)
(-1.05934e-15 2.81392e-15 -4.21393e-14)
(4.94647e-15 -7.2264e-17 -1.83912e-14)
(-1.30836e-14 -8.55448e-16 -2.16731e-14)
(2.74543e-15 1.76109e-16 -2.02421e-14)
(-5.22551e-15 -9.77244e-15 -2.56474e-14)
(1.93823e-14 2.99816e-14 -9.80784e-14)
(-1.60284e-13 -6.39742e-14 -4.82391e-13)
(4.8391e-13 6.79549e-13 -2.05429e-12)
(-3.06258e-12 -1.39942e-12 -9.80029e-12)
(9.88066e-12 1.23627e-11 -3.96124e-11)
(-5.40997e-11 -2.88353e-11 -1.75622e-10)
(1.7637e-10 1.93399e-10 -6.69145e-10)
(-8.28414e-10 -5.07461e-10 -2.72118e-09)
(2.6818e-09 2.56429e-09 -9.58181e-09)
(-1.05408e-08 -7.40865e-09 -3.487e-08)
(3.26761e-08 2.7542e-08 -1.09284e-07)
(-1.01868e-07 -8.23258e-08 -3.42954e-07)
(1.53632e-09 -1.20038e-08 -4.50614e-07)
(8.43816e-08 -8.34789e-08 -3.44272e-07)
(7.99504e-08 1.02037e-07 -3.41939e-07)
(5.44718e-08 -1.07208e-07 -3.26309e-07)
(-2.01253e-08 3.88075e-08 -1.08494e-07)
(1.15233e-09 -1.05565e-13 -4.78343e-08)
(-2.01227e-08 -3.8808e-08 -1.08495e-07)
(4.73426e-09 1.07857e-08 -3.35839e-08)
(7.09214e-09 -1.05069e-08 -3.48634e-08)
(7.48017e-09 7.42109e-09 -3.54059e-08)
(-2.83285e-09 -2.76808e-09 -1.00478e-08)
(-2.54864e-09 2.7469e-09 -9.65549e-09)
(4.35256e-11 -1.27634e-10 -4.01458e-09)
(5.15338e-10 5.16519e-10 -2.79579e-09)
(-1.3717e-10 7.12194e-11 -3.99099e-09)
(2.6823e-09 -2.56426e-09 -9.5825e-09)
(-4.62824e-10 -1.71222e-09 -1.28624e-08)
(-3.43792e-09 -1.81323e-09 -9.51603e-09)
(3.15864e-09 -1.98553e-09 -9.31067e-09)
(-3.99879e-11 1.28316e-11 -3.79826e-09)
(-8.33645e-10 3.36101e-10 -2.57916e-09)
(7.40908e-10 3.45325e-10 -2.53005e-09)
(-2.95289e-09 -2.20455e-09 -9.29271e-09)
(1.25436e-11 -1.73367e-09 -1.26095e-08)
(-1.09467e-08 5.11599e-09 -3.34384e-08)
(-2.04178e-10 1.15546e-09 -4.72848e-08)
(3.74728e-08 -2.08599e-08 -1.06696e-07)
(-1.07977e-07 5.75708e-08 -3.27897e-07)
(-1.80443e-11 1.19266e-08 -4.36766e-07)
(-3.25291e-07 -1.47907e-07 -8.95268e-07)
(-3.45763e-08 -8.36825e-08 -1.14874e-06)
(1.72891e-07 -1.79689e-07 -1.84765e-06)
(-2.57761e-08 -5.48685e-07 -4.89514e-06)
(1.06893e-07 5.16671e-07 -5.18027e-06)
(-1.43795e-06 -9.33432e-07 -4.66524e-06)
(-1.88468e-07 9.25352e-08 -3.23362e-06)
(1.67258e-08 1.86021e-08 -3.54101e-06)
(-2.1782e-08 -2.30392e-08 -1.25857e-06)
(-1.66528e-09 -1.51514e-13 -4.97157e-07)
(-7.05926e-10 -3.24413e-08 -4.95405e-07)
(-2.13355e-10 -3.43973e-09 -5.72918e-08)
(-4.40653e-11 -2.7005e-10 -4.89451e-09)
(-5.26908e-12 -1.57672e-11 -3.3432e-10)
(-4.43909e-13 -7.01014e-13 -1.9271e-11)
(-3.33836e-14 -2.25336e-14 -9.71448e-13)
(-7.07276e-15 -6.57827e-16 -4.57816e-14)
(-2.02473e-15 1.46973e-15 -9.35847e-16)
(-2.86875e-15 -1.56365e-15 -3.92025e-15)
(4.28395e-15 -4.25933e-15 2.19756e-15)
(-2.96229e-15 -1.54969e-15 3.4216e-15)
(-3.544e-15 -2.19292e-15 6.88015e-15)
(-2.48355e-15 1.8748e-15 3.21433e-15)
(-2.47902e-15 8.29922e-15 4.60065e-15)
(-1.15286e-15 -3.00389e-15 -1.27232e-15)
(-6.92572e-15 5.15366e-15 -7.99662e-15)
(-6.32647e-16 3.26033e-15 -6.06026e-15)
(-1.49859e-15 -4.4116e-16 -8.60209e-15)
(9.72361e-16 -3.67991e-15 -1.04308e-14)
(3.64402e-15 -5.01272e-15 -1.92296e-15)
(-1.79977e-15 1.13049e-15 -2.17776e-15)
(3.65407e-15 -6.41511e-15 -5.79705e-15)
(7.88186e-15 6.3314e-15 -2.9752e-14)
(1.79369e-15 -6.55967e-15 -4.47841e-14)
(-3.58063e-14 -2.63069e-14 -1.08776e-13)
(-4.3043e-14 4.11002e-14 -1.20849e-13)
(1.6072e-14 -8.29709e-15 -2.79593e-14)
(1.06673e-14 -1.99724e-14 -4.10664e-14)
(9.25595e-15 -2.80017e-14 -9.24147e-14)
(5.19962e-15 -7.08661e-15 -4.79443e-15)
(-1.66853e-16 -3.70751e-15 -6.66305e-15)
(-8.70021e-15 -2.23327e-15 3.50496e-15)
(8.43109e-15 -3.24975e-15 2.43216e-14)
(7.0955e-15 -3.7192e-15 -8.54241e-17)
(-9.29504e-16 2.14167e-15 -9.36428e-14)
(-1.6022e-15 -4.37075e-15 -5.94835e-14)
(-5.50051e-15 -5.09698e-15 -1.15498e-14)
(-4.42126e-15 -1.87603e-15 -7.5741e-14)
(-9.85058e-14 -2.27077e-13 -1.61921e-12)
(-1.56002e-13 -1.44826e-13 -1.10365e-12)
(-4.60223e-14 4.4259e-14 -1.83281e-12)
(-8.94506e-13 4.03847e-13 -3.30551e-11)
(-2.89534e-12 -2.76624e-12 -2.14519e-11)
(4.12933e-13 7.37105e-13 -6.678e-12)
(2.42578e-14 4.05987e-14 -3.32605e-13)
(-5.03462e-15 6.3042e-14 -3.1829e-13)
(-2.17007e-14 2.24856e-14 -8.23102e-14)
(2.49912e-14 2.0749e-14 -8.32374e-14)
(-1.4095e-13 -3.27809e-14 -4.35726e-13)
(1.13219e-13 -1.71384e-14 -4.35767e-13)
(-1.4711e-14 2.71667e-14 -1.24131e-13)
(-3.9821e-14 2.2296e-14 -8.85317e-14)
(-7.73151e-15 -2.47088e-15 -1.75076e-14)
(-2.53696e-15 -1.22773e-14 -8.05661e-14)
(-2.6189e-14 -2.02283e-13 -1.71628e-12)
(-2.85359e-13 -4.28659e-12 -3.17428e-11)
(-1.69863e-12 -4.48952e-12 -3.03384e-11)
(-2.65779e-11 -7.84788e-11 -4.93061e-10)
(-4.68969e-11 -4.69985e-11 -3.60336e-10)
(-1.73918e-11 1.63649e-13 -5.22802e-10)
(-2.90511e-10 -9.19205e-11 -6.99093e-09)
(-6.45159e-10 -6.76725e-10 -5.16528e-09)
(7.82838e-11 1.38304e-10 -1.77319e-09)
(6.30089e-12 1.11521e-11 -1.17257e-10)
(9.97007e-13 1.87587e-11 -1.12792e-10)
(-1.15338e-11 1.06393e-11 -3.67103e-11)
(1.22482e-11 9.80775e-12 -3.73104e-11)
(-5.23607e-11 -1.78274e-11 -1.63371e-10)
(4.87355e-11 -1.36022e-11 -1.64183e-10)
(-3.30068e-12 9.90746e-12 -5.47474e-11)
(-1.44102e-11 9.28482e-12 -3.88595e-11)
(2.56854e-12 -5.48897e-13 -9.02026e-12)
(-2.15119e-13 5.8015e-13 -2.86438e-12)
(-7.5367e-13 5.29604e-13 -1.99958e-12)
(-2.54908e-14 4.94078e-14 -6.87382e-13)
(6.16441e-13 5.51766e-13 -1.90005e-12)
(-2.84443e-12 -7.75903e-13 -8.91117e-12)
(-3.82352e-14 5.81057e-13 -2.6527e-12)
(-5.88448e-13 5.97313e-13 -1.8608e-12)
(1.10708e-13 -2.73201e-14 -4.03024e-13)
(1.09501e-15 2.74752e-14 -1.21389e-13)
(-1.22852e-14 1.07431e-14 -1.84764e-13)
(-6.31918e-15 6.53542e-16 -1.78595e-13)
(-1.93052e-14 -1.07767e-14 -7.93655e-14)
(-8.33871e-15 1.5924e-15 -2.44964e-14)
(9.14585e-15 1.10224e-14 -2.14994e-14)
(-1.30186e-15 -8.21712e-15 -6.1725e-15)
(1.62128e-15 6.05848e-16 -1.05641e-15)
(4.77531e-15 -3.82887e-16 5.45267e-15)
(6.75859e-15 -4.72708e-15 -7.66104e-15)
(6.90339e-16 -4.23441e-15 -1.15432e-14)
(-3.89198e-15 1.42609e-15 -1.16897e-14)
(-8.12018e-15 5.24386e-15 -7.17974e-15)
(-4.21425e-15 4.33112e-15 -1.46183e-14)
(6.28386e-15 -1.25169e-15 -1.23052e-14)
(3.22855e-15 3.11522e-15 -1.12522e-14)
(-6.05275e-15 -4.67112e-15 -1.55893e-14)
(-5.00984e-15 -7.74513e-15 -5.93823e-15)
(-1.81561e-15 -6.9315e-16 -2.43181e-15)
(1.44866e-14 -6.00951e-15 -1.0592e-13)
(4.21907e-15 -1.46806e-14 -7.11653e-14)
(-4.52893e-14 3.29638e-14 -4.02745e-13)
(-2.01371e-14 6.76004e-14 -3.4715e-13)
(6.56687e-14 -2.53945e-13 -1.81464e-12)
(1.43305e-12 -5.119e-12 -3.34608e-11)
(2.56836e-11 -8.73675e-11 -5.34708e-10)
(-2.7192e-12 -7.57564e-11 -5.10315e-10)
(-1.0833e-11 -1.1512e-09 -6.96564e-09)
(-3.6178e-10 -1.17356e-09 -6.80264e-09)
(-4.28742e-09 -1.45981e-08 -7.6597e-08)
(-7.32045e-09 -8.13067e-09 -6.07798e-08)
(-3.92787e-09 -2.25642e-09 -7.51744e-08)
(-4.31857e-08 -3.76279e-08 -5.89589e-07)
(-7.1393e-08 -8.04862e-08 -5.50809e-07)
(1.90083e-09 7.76058e-09 -2.22012e-07)
(6.83888e-10 1.29754e-09 -2.23727e-08)
(3.61594e-10 2.40522e-09 -2.17528e-08)
(-2.95264e-09 2.20428e-09 -9.29165e-09)
(3.15811e-09 1.98545e-09 -9.30965e-09)
(-1.09465e-08 -5.11504e-09 -3.3436e-08)
(1.07495e-08 -4.3251e-09 -3.32529e-08)
(-4.63125e-10 1.71224e-09 -1.2862e-08)
(-3.43753e-09 1.81317e-09 -9.51545e-09)
(7.9789e-10 -2.70878e-10 -2.57686e-09)
(-4.29256e-11 1.44183e-10 -9.16001e-10)
(-2.41052e-10 1.41063e-10 -6.61293e-10)
(-4.46223e-12 5.60444e-12 -2.48122e-10)
(2.13166e-10 1.52012e-10 -6.41561e-10)
(-8.33617e-10 -3.36043e-10 -2.57889e-09)
(-4.29585e-12 1.45997e-10 -8.84705e-10)
(-2.004e-10 1.66268e-10 -6.35581e-10)
(4.533e-11 -1.75845e-11 -1.58948e-10)
(-5.36648e-13 9.99042e-12 -5.19036e-11)
(-2.41379e-12 1.80605e-12 -7.81565e-11)
(-1.66753e-13 1.22344e-13 -4.0908e-12)
(-1.82976e-13 -3.98512e-14 -3.96911e-12)
(-3.10645e-13 -2.01611e-13 -1.78157e-12)
(3.39886e-14 8.64791e-14 -4.76758e-13)
(1.38629e-13 1.27767e-13 -3.95984e-13)
(1.81623e-15 2.50982e-14 -1.06025e-13)
(9.48857e-15 5.05136e-15 -1.00412e-13)
(-8.13038e-14 -6.07726e-14 -4.01855e-13)
(7.27102e-13 5.2157e-13 -1.86651e-12)
(-1.58718e-12 -1.25054e-12 -8.02854e-12)
(-1.59459e-12 1.24746e-12 -8.03626e-12)
(1.31601e-12 -1.0851e-12 -9.54431e-12)
(1.30734e-11 -9.76566e-12 -3.64537e-11)
(5.22787e-12 -2.21968e-12 -4.24324e-11)
(-3.21788e-11 2.481e-11 -1.49455e-10)
(1.8659e-11 -1.64146e-11 -1.75248e-10)
(2.0819e-10 -1.63666e-10 -6.32993e-10)
(6.51673e-11 -2.36235e-11 -7.28633e-10)
(-5.63984e-10 4.28404e-10 -2.41313e-09)
(2.04793e-10 -2.0531e-10 -2.7696e-09)
(2.7937e-09 -2.32253e-09 -9.28736e-09)
(5.61798e-10 -1.59086e-10 -1.0477e-08)
(-7.92991e-09 6.08997e-09 -3.19698e-08)
(1.57123e-09 -2.12711e-09 -3.5504e-08)
(3.0216e-08 -2.60866e-08 -1.0721e-07)
(1.25166e-09 -6.16974e-10 -1.17323e-07)
(-7.97353e-08 6.57576e-08 -3.19826e-07)
(7.99992e-09 -2.21463e-08 -3.36764e-07)
(2.5449e-07 -2.04571e-07 -8.55626e-07)
(-4.97429e-08 -4.00567e-08 -9.27011e-07)
(-4.4399e-07 4.36513e-07 -2.13039e-06)
(-8.1013e-08 -1.39551e-11 -2.30248e-06)
(-4.43969e-07 -4.36503e-07 -2.13034e-06)
(1.40888e-07 4.32876e-07 -2.09223e-06)
(8.10276e-07 5.87976e-07 -2.34488e-06)
(-2.94005e-08 6.88258e-08 -1.02186e-06)
(-2.09797e-07 -2.07185e-07 -9.68614e-07)
(-3.24548e-10 2.98677e-09 -3.51743e-07)
(9.4832e-08 7.37396e-08 -3.38843e-07)
(9.01116e-10 8.3949e-09 -1.18227e-07)
(-2.47144e-08 -2.15217e-08 -1.10313e-07)
(2.43142e-10 1.68465e-09 -3.69143e-08)
(9.32586e-09 7.82744e-09 -3.34497e-08)
(1.21653e-10 1.05177e-09 -1.05417e-08)
(-1.98146e-09 -1.5948e-09 -9.29135e-09)
(5.00021e-11 2.35742e-10 -2.8853e-09)
(7.40218e-10 6.41984e-10 -2.50373e-09)
(1.59036e-11 9.6965e-11 -7.35196e-10)
(-1.24631e-10 -9.40411e-11 -6.23007e-10)
(5.35448e-12 2.16297e-11 -1.83401e-10)
(4.89896e-11 4.33709e-11 -1.54342e-10)
(1.4497e-12 7.05882e-12 -4.30019e-11)
(-6.59593e-12 -4.64442e-12 -3.53981e-11)
(4.38326e-13 1.54078e-12 -1.00126e-11)
(2.80397e-12 2.52246e-12 -8.24306e-12)
(1.04057e-13 4.18063e-13 -2.20289e-12)
(3.52029e-13 1.54641e-13 -2.17101e-12)
(-6.63483e-14 -8.16099e-15 -7.62593e-12)
(-1.38145e-14 -2.67435e-15 -4.14386e-13)
(-1.25179e-15 -4.00696e-15 -1.95248e-14)
(5.41508e-15 -6.28318e-15 -2.16761e-15)
(5.61903e-15 -1.21471e-14 -3.72258e-15)
(2.74289e-15 -4.96226e-15 -6.142e-15)
(-9.40365e-15 -4.00052e-15 -8.41467e-14)
(-3.25462e-13 -1.01763e-15 -1.6435e-12)
(-5.73413e-12 -2.99184e-16 -2.88847e-11)
(-9.00217e-11 3.80054e-15 -4.55708e-10)
(-1.15887e-09 2.16106e-13 -6.03459e-09)
(-1.08661e-08 7.8351e-12 -6.25626e-08)
(-6.30126e-08 -5.46998e-12 -4.57558e-07)
(-1.66759e-07 -6.86366e-12 -1.97704e-06)
(-2.25164e-07 -7.0889e-11 -4.41584e-06)
(-9.80143e-07 4.02743e-07 -3.73895e-06)
(-9.80137e-07 -4.02772e-07 -3.73891e-06)
(-9.23274e-07 -5.10731e-07 -2.73297e-06)
(-7.95169e-07 -6.89302e-07 -3.97635e-06)
(-1.15184e-07 -3.08316e-08 -1.57559e-06)
(-4.97426e-08 -1.42717e-07 -6.47993e-07)
(-4.62763e-07 -1.18345e-06 -3.46947e-06)
(4.53529e-07 1.88622e-06 -2.7485e-06)
(3.36528e-07 1.27139e-07 -1.91756e-06)
(2.49268e-08 8.421e-08 -1.14e-06)
(1.4668e-08 8.23173e-09 -1.19885e-06)
(-1.84676e-08 -3.90945e-08 -1.23818e-06)
(-4.97285e-08 4.00528e-08 -9.26978e-07)
(2.54467e-07 2.04578e-07 -8.556e-07)
(8.00293e-09 2.2139e-08 -3.36749e-07)
(-7.9734e-08 -6.5754e-08 -3.19817e-07)
(-2.01323e-08 -2.60757e-12 -3.89021e-07)
(-3.94742e-08 -1.6411e-12 -4.95737e-07)
(-5.24326e-09 -6.50445e-13 -5.73996e-08)
(1.57193e-09 2.12665e-09 -3.55017e-08)
(-7.92922e-09 -6.09e-09 -3.19688e-08)
(3.0211e-08 2.60847e-08 -1.07203e-07)
(1.25009e-09 6.15796e-10 -1.17321e-07)
(-6.70368e-09 -7.32884e-09 -1.81462e-07)
(-8.02228e-10 -6.32741e-10 -1.74304e-08)
(5.61643e-10 1.58807e-10 -1.04764e-08)
(2.79294e-09 2.32235e-09 -9.28665e-09)
(2.0482e-10 2.05215e-10 -2.76942e-09)
(-5.63933e-10 -4.28435e-10 -2.41309e-09)
(3.80256e-11 -5.1912e-14 -3.34479e-09)
(-4.15985e-10 9.61715e-15 -4.78873e-09)
(-2.42643e-11 -5.04083e-15 -3.16216e-10)
(-1.11102e-12 -2.48366e-16 -1.75918e-11)
(1.32056e-12 1.07339e-12 -9.54628e-12)
(1.30802e-11 9.76083e-12 -3.64417e-11)
(-3.21766e-11 -2.4816e-11 -1.49445e-10)
(2.08149e-10 1.63641e-10 -6.32941e-10)
(6.51456e-11 2.3605e-11 -7.28566e-10)
(-6.27379e-11 -3.66178e-11 -1.27589e-09)
(-3.7484e-12 -1.47654e-12 -7.65856e-11)
(-4.98657e-13 -5.35848e-16 -1.71719e-11)
(-2.60097e-14 4.36224e-16 -8.34606e-13)
(1.65327e-15 -2.4162e-15 -3.46188e-14)
(-3.83254e-15 -6.07848e-15 -3.8544e-14)
(-2.5775e-16 -4.37411e-15 -1.35142e-14)
(2.91963e-14 1.7173e-14 -7.97041e-14)
(1.68111e-14 -8.01312e-15 -2.40172e-14)
(3.15327e-14 -2.25789e-14 -8.28347e-14)
(1.32692e-14 -1.52791e-14 -9.65848e-14)
(-7.44163e-14 5.45134e-14 -3.89519e-13)
(8.34526e-14 -6.15395e-14 -4.68796e-13)
(7.21828e-13 -5.17397e-13 -1.86502e-12)
(3.44661e-13 -1.57843e-13 -2.17913e-12)
(-1.85399e-13 3.74766e-14 -3.96638e-12)
(-4.06849e-14 -1.66556e-15 -8.63951e-13)
(8.05583e-14 6.06709e-14 -4.66545e-13)
(8.3697e-14 1.83613e-15 -6.03894e-13)
(-5.72737e-15 -1.80286e-15 -1.78139e-13)
(2.71489e-15 -1.69097e-15 -1.41769e-14)
(-2.99232e-15 2.26784e-15 -2.52853e-15)
(-1.65338e-15 -2.59303e-15 -1.52999e-15)
(-3.80077e-15 -4.00545e-15 -1.24648e-14)
(1.71178e-15 3.58723e-16 -5.76251e-15)
(-1.06687e-15 -6.50124e-15 -9.00917e-16)
(3.85906e-15 -3.18742e-15 -3.311e-15)
(5.72756e-15 -3.58858e-15 -4.1039e-15)
(5.68856e-15 -1.73804e-14 -1.908e-16)
(-3.15129e-17 -1.11969e-15 -7.31026e-15)
(3.82853e-15 -6.44488e-15 -9.18881e-15)
(5.02597e-15 -4.44648e-15 -1.02697e-14)
(9.65514e-15 2.51677e-15 -7.49273e-15)
(4.29733e-15 -4.24029e-15 -9.20238e-15)
(4.33831e-15 -1.14748e-15 -1.14354e-14)
(-2.04484e-15 -6.8956e-16 5.4532e-15)
(-2.72579e-15 7.4892e-16 2.76381e-15)
(-4.29062e-15 1.73636e-15 1.50512e-15)
(-5.18171e-16 2.93474e-15 -1.64875e-14)
(-5.76362e-16 2.42421e-15 5.41198e-15)
(-1.84681e-15 2.62862e-15 3.20113e-15)
(-1.90147e-16 1.38953e-15 -2.46456e-15)
(1.01138e-15 5.69312e-17 -6.14534e-15)
(1.83181e-15 -3.52416e-16 4.43481e-15)
(4.09292e-15 2.2036e-15 7.22127e-15)
(-3.22677e-15 -3.01309e-16 9.21934e-16)
(2.86688e-15 8.41987e-16 2.80285e-15)
(4.04618e-16 5.28214e-16 -3.77811e-15)
(4.02851e-16 -2.1054e-15 -3.8745e-15)
(-8.54705e-16 -2.20961e-15 -3.08353e-15)
(-3.42942e-15 -8.08541e-15 6.80877e-15)
(1.91847e-15 -1.12837e-15 6.86612e-15)
(-2.25969e-15 -1.93263e-16 7.13585e-15)
(5.03798e-16 -2.59098e-15 3.48736e-15)
(-2.00749e-15 2.68225e-15 1.36628e-14)
(-5.60453e-16 3.12608e-15 -7.32325e-15)
(1.247e-15 8.35883e-16 6.64616e-15)
(-4.09265e-15 1.22906e-15 -7.12018e-15)
(-7.81717e-16 1.14095e-15 1.55058e-14)
(-3.65891e-15 -1.93621e-15 -2.03176e-16)
(-2.54069e-15 1.31656e-15 -1.15496e-15)
(-5.32925e-15 3.26681e-15 3.009e-15)
(-7.30564e-15 -3.85575e-15 -3.48193e-15)
(-8.54337e-15 -1.08635e-14 -7.45341e-16)
(1.64003e-15 -1.85571e-15 3.83484e-15)
(-4.6356e-15 3.64206e-15 1.25926e-14)
(-1.85352e-15 2.16152e-15 -7.26937e-15)
(1.48579e-16 -1.18673e-15 2.17344e-15)
(3.8734e-16 3.69949e-15 -7.30609e-15)
(-7.65373e-15 2.38565e-15 -4.31008e-14)
(-4.30292e-14 4.52347e-16 -9.48033e-13)
(-5.72759e-13 7.2951e-16 -1.90117e-11)
(-6.83768e-12 -3.29578e-15 -3.33976e-10)
(-7.15694e-12 4.53871e-15 -3.10543e-10)
(-7.21102e-11 2.09466e-14 -4.72673e-09)
(-3.60493e-10 3.72509e-13 -5.70553e-08)
(2.34812e-10 -1.25895e-12 -4.95072e-07)
(-4.66744e-08 -1.14411e-12 -3.0042e-06)
(-4.70876e-07 4.34463e-12 -3.11149e-06)
(1.2761e-06 -4.37605e-11 -7.78478e-06)
(-8.16365e-08 -6.15117e-07 -3.97927e-06)
(7.09236e-07 4.95648e-07 -5.70073e-06)
(-1.6096e-06 -5.29531e-07 -1.003e-05)
(-8.52084e-07 7.82186e-07 -8.10823e-06)