/*--------------------------------*- C++ -*----------------------------------*\
| =========                 |                                                 |
| \\      /  F ield         | OpenFOAM: The Open Source CFD Toolbox           |
|  \\    /   O peration     | Version:  2306                                  |
|   \\  /    A nd           | Website:  www.openfoam.com                      |
|    \\/     M anipulation  |                                                 |
\*---------------------------------------------------------------------------*/
FoamFile
{
    version     2.0;
    format      ascii;
    arch        "LSB;label=32;scalar=64";
    class       volScalarField;
    location    "0.1";
    object      gradTx;
}
// * * * * * * * * * * * * * * * * * * * * * * * * * * * * * * * * * * * * * //

dimensions      [0 -1 0 1 0 0 0];

internalField   nonuniform List<scalar> 
2658
(
0.00645247
0.0102
0.00127842
0.000101509
-0.00217129
-0.00175713
0.000683433
0.000721207
1.30773e-05
0.00253217
-0.00303673
-0.00459472
0.00635029
0.00562308
0.00366178
0.00107564
-9.99836e-05
-0.00115206
-0.00365618
-0.00590419
-0.00725047
-0.016103
-0.0162655
0.009089
-0.00305266
-0.00792056
-0.0165474
-0.00149985
-0.0119597
-0.0147171
-0.0119594
-0.0165477
-0.00792093
-0.0162658
-0.00305227
0.00908876
-0.000517342
0.0016312
-0.0161021
-0.0072523
-0.00590433
-0.00365607
-0.00115306
0.000452797
-0.00156085
0.00147767
-0.0030367
-0.000220256
0.00107439
0.00366198
0.00562333
0.00635042
0.0156316
-0.00185812
0.0156057
0.0137667
-0.0047283
-0.0015103
-0.0138496
0.0133066
-0.00472811
0.013767
0.0156057
-0.00185783
-0.000756427
-0.0162271
-0.000717393
-0.000721835
-0.00130692
-0.00130704
0.000103799
0.000465485
-0.000132669
-0.00023084
1.18063e-05
-0.000260488
0.000279304
-7.09337e-06
-9.0099e-05
9.18799e-05
-0.000337406
-3.64747e-05
0.000924588
-0.000870701
0.000170442
9.77979e-06
4.81964e-07
1.61117e-09
-2.25651e-09
-2.50126e-10
-1.94328e-11
1.06822e-12
1.75768e-11
-5.97027e-12
-2.38146e-11
6.12532e-11
1.71216e-11
-3.92611e-11
5.64289e-12
-5.31843e-11
-3.67051e-11
-3.39543e-11
-3.05027e-11
3.24097e-11
1.82278e-11
-2.12374e-11
-3.61051e-12
2.55571e-11
4.59792e-11
3.68966e-11
-1.74607e-11
-4.69761e-13
-2.29485e-11
-2.44622e-11
-1.77032e-11
1.84761e-11
2.16747e-11
1.07328e-11
2.36912e-11
4.74622e-11
2.02008e-11
-4.24469e-11
-3.46344e-12
1.84718e-11
5.87914e-11
7.67994e-12
-2.17041e-11
1.12167e-11
8.15971e-12
2.5176e-11
-1.34925e-11
1.47198e-11
-5.44986e-11
-1.16295e-11
2.04622e-11
2.06398e-11
-3.12051e-11
-4.1427e-11
-2.51346e-11
-2.30762e-11
-3.64586e-11
-4.34935e-11
-9.16182e-12
-2.22784e-12
-6.08787e-11
-4.51336e-11
-2.04759e-11
-3.55572e-11
-2.39577e-11
-7.83685e-11
-5.31715e-11
-5.27972e-12
-8.73443e-11
-9.1072e-12
-2.17345e-11
1.66703e-11
-7.31258e-11
8.47002e-12
3.15268e-11
2.18127e-11
5.29873e-11
2.25958e-11
-2.37717e-11
-9.60585e-12
2.89153e-11
-2.5682e-12
2.31306e-11
4.18946e-11
2.02904e-12
-5.48255e-11
-1.42232e-10
2.52901e-10
-7.17736e-10
5.70287e-09
-1.61034e-08
1.09801e-07
-3.09833e-07
1.84687e-06
-5.16315e-06
2.64765e-05
-7.13211e-05
0.000307528
-0.000766349
0.00266458
-0.00257558
0.00271628
-0.00278025
0.00253209
-0.00217135
0.000101517
-0.00175699
-0.000717508
-0.0162268
-0.00075632
-0.00459475
0.0028503
0.000170448
9.78017e-06
4.81065e-07
1.53046e-09
-2.28223e-09
-2.77639e-10
9.33123e-12
-9.80016e-12
-2.63881e-11
1.02354e-11
-2.88406e-11
1.70605e-11
8.3483e-11
6.2913e-11
3.33999e-11
7.72642e-11
-3.3609e-12
5.82588e-11
1.02754e-10
1.34222e-11
-5.0927e-11
-2.43317e-11
-2.59438e-11
-2.79376e-11
-3.43317e-11
4.37695e-11
2.41513e-11
1.45911e-11
1.79912e-11
-3.00257e-11
-2.83085e-11
-7.53628e-12
1.2899e-11
-1.59188e-11
5.06039e-11
3.24234e-12
4.73344e-11
8.32275e-12
-1.52424e-11
7.02729e-12
8.29828e-12
-5.153e-11
-5.05697e-11
9.80297e-12
2.63095e-11
1.47012e-11
3.40893e-11
2.51293e-11
2.87606e-11
-1.78539e-11
-5.90678e-12
-3.36941e-12
5.4012e-11
-1.71566e-11
3.43108e-11
-2.17507e-11
-2.37299e-11
4.89278e-11
2.17265e-11
-6.1973e-11
8.44784e-12
1.40116e-11
-1.57978e-10
5.76358e-11
1.20833e-09
-2.61991e-09
9.08802e-10
2.39945e-08
-5.63088e-08
1.24815e-08
4.18875e-07
-1.06531e-06
1.35887e-07
6.32687e-06
-1.694e-05
1.03935e-06
7.97118e-05
-0.000211241
7.70194e-06
0.000810615
-0.00179336
-0.000251307
0.00692559
0.00120424
0.0132709
0.0132706
-0.00149951
0.00606175
-0.000697841
0.00559177
0.00060371
-0.00270152
-0.00270159
0.0034895
-4.42865e-05
-0.00377124
-0.00377133
0.000824554
-0.00196928
-0.00790951
-0.00790955
0.00481922
0.0143964
0.00481924
0.00685618
0.0160698
0.0076488
0.00955991
0.00740732
-0.0141079
-0.00809515
0.00439826
0.00569785
-0.000381188
0.000824473
-0.00106643
-0.00259988
0.00835659
-0.00808351
0.00541375
0.0123419
0.00691346
-0.00435461
-0.00553189
-0.00435432
-0.0025999
-0.00809487
-0.0141077
0.00764879
0.0160704
0.00685663
0.0043984
0.00569798
0.00691426
0.0123406
0.00541286
-0.00808349
0.00835637
0.000913453
0.0106752
-0.000107795
-0.0106998
0.0123668
-2.53598e-05
-0.00161101
-0.0122901
4.60054e-05
-0.00137271
-1.02612e-05
1.04422e-06
-1.13163e-07
-1.87563e-08
-1.43551e-09
-7.87994e-11
-8.69115e-12
-9.05417e-12
4.22775e-11
-1.11826e-10
2.34652e-11
-4.46625e-11
1.6566e-10
-1.36995e-09
4.13598e-09
-2.61759e-08
8.44501e-08
-4.62391e-07
1.50743e-06
-7.08046e-06
2.29213e-05
-9.0092e-05
0.000279283
-0.000870664
1.31309e-05
0.00072121
0.000683336
0.000465571
-0.000172011
9.84901e-06
-0.000171989
4.04638e-05
6.06166e-05
6.39331e-05
-2.42124e-05
-2.17832e-05
3.72013e-07
4.4046e-06
-1.17239e-06
2.29256e-05
-3.95576e-06
-2.93839e-05
2.69969e-05
-3.41777e-07
-7.12517e-06
6.33255e-06
-2.52384e-05
1.07211e-07
-9.35619e-05
-1.74511e-06
0.00032028
-0.000922877
-1.54225e-07
-0.00278026
-0.000295524
0.0014777
-0.000220309
0.00091362
-0.0122902
-0.00161084
0.000142956
-0.000186171
-1.42332e-05
-6.03356e-06
-1.82355e-06
-3.76626e-07
-4.50349e-08
-3.79409e-09
-2.8533e-10
-6.04509e-11
-1.73054e-11
-2.45192e-11
3.6615e-11
-2.53188e-11
-3.02906e-11
-2.12269e-11
-2.11882e-11
-9.8535e-12
-5.91942e-11
-5.40724e-12
-1.28085e-11
8.31078e-12
3.11455e-11
-1.53827e-11
3.12314e-11
6.73663e-11
1.53307e-11
-3.06037e-10
-3.67889e-10
1.37367e-10
9.11736e-11
7.91107e-11
4.44412e-11
-1.42609e-12
-7.43608e-11
7.20606e-11
6.06453e-11
-7.94448e-12
-1.3694e-11
-4.70129e-11
-3.77886e-11
-8.4193e-10
-1.33335e-09
-3.93353e-10
-7.64535e-09
-2.47465e-08
3.52934e-09
2.07332e-10
-4.30309e-11
-1.85476e-10
2.136e-10
-1.2047e-09
9.67687e-10
-1.25735e-10
-3.40351e-10
-6.60813e-11
-2.16834e-11
-2.23838e-10
-2.43897e-09
-1.45182e-08
-2.27162e-07
-4.00828e-07
-1.48647e-07
-2.483e-06
-5.51418e-06
6.69093e-07
5.38538e-08
8.52143e-09
-9.85798e-08
1.04685e-07
-4.47527e-07
4.16543e-07
-2.82109e-08
-1.23164e-07
2.19533e-08
-1.83862e-09
-6.44163e-09
-2.1787e-10
5.26873e-09
-2.43114e-08
-3.26797e-10
-5.02947e-09
9.46221e-10
9.35903e-12
-1.05002e-10
-5.401e-11
-1.65001e-10
-7.1271e-11
7.81697e-11
-1.1127e-11
1.38571e-11
4.08146e-11
5.77657e-11
5.90034e-12
-3.32648e-11
-6.94032e-11
-3.60193e-11
5.37082e-11
2.75944e-11
-5.17329e-11
-4.28191e-11
-1.5518e-11
1.23817e-10
3.60605e-11
-3.87088e-10
-1.72112e-10
5.61271e-10
1.22482e-08
2.19518e-07
-2.32411e-08
-9.25898e-08
-3.09213e-06
-3.66447e-05
-6.2568e-05
-3.35715e-05
-0.000369109
-0.000610197
1.62464e-05
5.84519e-06
3.09055e-06
-2.52362e-05
2.69924e-05
-9.35595e-05
9.18758e-05
-3.95834e-06
-2.93806e-05
6.81957e-06
-3.66885e-07
-2.06028e-06
-3.81387e-08
1.82193e-06
-7.12493e-06
-3.67167e-08
-1.71282e-06
3.87436e-07
-4.58673e-09
-2.06307e-08
-1.42524e-09
-1.5639e-09
-2.65509e-09
2.90501e-10
1.18486e-09
1.55234e-11
8.10989e-11
-6.94904e-10
6.21454e-09
-1.35657e-08
-1.3629e-08
1.12479e-08
1.11738e-07
4.46827e-08
-2.75033e-07
1.59479e-07
1.77941e-06
5.56985e-07
-4.82037e-06
1.75037e-06
2.38778e-05
4.8017e-06
-6.7777e-05
1.34293e-05
0.000258257
1.06979e-05
-0.000681498
6.83753e-05
0.00217513
-0.000425153
-0.00379478
-0.000692419
-0.00379461
0.00120417
0.00692544
-0.000251286
-0.00179313
-2.77392e-06
0.00081053
7.70185e-06
-0.000211234
2.07814e-06
7.97082e-05
1.03977e-06
-1.69356e-05
4.27368e-07
6.32665e-06
1.35929e-07
-1.06522e-06
4.57648e-08
4.18715e-07
1.23906e-08
-5.63755e-08
3.74637e-09
2.39656e-08
8.89376e-10
3.00879e-09
-5.6708e-10
-1.18073e-10
-1.06991e-11
4.62827e-11
4.80259e-11
2.34435e-11
-8.03731e-11
-2.78172e-09
-4.90097e-08
-7.69416e-07
-9.9049e-06
-9.28727e-05
-0.000538569
-0.00142529
-0.00192448
-0.00837729
-0.00837724
-0.00789123
-0.00679631
-0.000984481
-0.00042515
-0.00395524
0.00387631
0.00287631
0.00021305
0.000125367
-0.000157843
-0.00042503
0.00217493
6.84011e-05
-0.000681487
-0.000172071
-0.000337386
-4.48142e-05
1.34353e-05
-6.77711e-05
0.000258214
1.06845e-05
-5.72965e-05
-6.85665e-06
4.80037e-06
2.38713e-05
1.7506e-06
-4.81994e-06
3.25005e-07
-3.55543e-06
-2.07387e-07
-9.49592e-09
1.12869e-08
1.11797e-07
-2.75014e-07
1.77905e-06
5.568e-07
-5.36221e-07
-3.20376e-08
-4.26202e-09
-2.22305e-10
1.41305e-11
-3.27567e-11
-2.20299e-12
2.49541e-10
1.43685e-10
2.6951e-10
1.13412e-10
-6.36036e-10
7.1327e-10
6.16947e-09
2.94582e-09
-1.58461e-09
-3.47734e-10
6.88532e-10
7.15359e-10
-4.89519e-11
2.32041e-11
-2.55754e-11
-1.41315e-11
-3.24852e-11
1.46306e-11
-9.11858e-12
3.29834e-11
4.89535e-11
4.86202e-11
-2.69341e-13
3.27225e-11
4.2957e-11
8.25226e-11
3.67293e-11
3.70796e-11
-1.74773e-11
-2.32974e-11
-3.6672e-11
-4.42881e-12
-4.92617e-12
-1.57847e-11
-1.62519e-12
8.6443e-12
1.56565e-11
3.49822e-11
-2.75792e-11
2.45032e-11
3.45827e-12
3.44317e-12
-7.30517e-12
-2.93112e-11
1.63972e-11
-1.93135e-11
4.30597e-12
-1.71581e-11
-4.7902e-12
1.06581e-11
-3.49799e-11
-6.68134e-12
-3.12728e-11
-2.17153e-11
-4.55492e-11
-6.24413e-11
-7.30202e-11
1.40174e-11
-3.96205e-11
-1.58421e-11
1.26991e-12
3.31059e-12
-6.54165e-11
-3.67771e-10
-4.89538e-09
-5.84417e-08
-6.11704e-08
-6.16326e-07
-3.08113e-06
2.00694e-06
-0.000398927
-0.00402458
0.0109068
-0.000697748
0.00606185
-0.0137573
-0.00728277
-0.0072823
-0.0137581
-0.00694747
1.2608e-05
-0.0114042
0.0157626
0.00155912
-7.88216e-06
-0.00925602
-0.000449294
0.00808844
-0.00579168
-0.0127494
-0.011174
-0.00733409
-0.00706161
0.00174595
0.00254328
0.00184325
0.00120328
-0.0119205
0.00184356
-0.00694686
-0.0114042
1.29992e-05
0.00287402
0.00155954
-0.00925599
-7.79588e-06
0.00111418
-2.5269e-05
0.0123669
-0.0107002
-0.000107245
0.0106758
0.000758191
-0.000247918
0.00254396
0.00187545
-0.00186633
0.002874
0.00211534
0.000606438
-0.000752198
-0.000247382
8.57959e-05
0.00075776
-0.00208109
-0.000381249
-0.00106635
0.000142882
-0.00018619
-0.000295599
-0.000369866
1.64461e-05
1.07952e-06
4.1772e-05
-0.000297235
0.000320254
-0.000922898
0.000924594
-3.65015e-05
-0.000337386
-1.74682e-06
-6.73187e-05
4.48029e-05
3.40705e-06
-7.39496e-06
-6.61064e-07
-4.91734e-08
-3.11945e-09
2.43808e-10
2.05413e-08
7.45533e-10
-5.77607e-09
-6.61302e-09
-3.29099e-10
-6.31847e-09
1.09772e-08
-4.42213e-09
-1.0992e-07
-1.18493e-07
1.2639e-08
-9.55721e-09
2.52911e-07
-2.51651e-08
-1.67567e-06
-1.83849e-06
-1.22687e-07
4.40475e-06
3.70495e-07
-2.17798e-05
-2.42138e-05
-1.17255e-06
6.39333e-05
1.18012e-05
-0.000230813
-0.000260523
-7.08565e-06
-2.39498e-05
0.000497943
0.003971
1.1454e-05
-9.5528e-05
0.000318099
-9.44276e-05
0.000636523
0.00073401
0.00127824
0.000134954
1.09919e-05
7.50131e-07
4.45102e-08
2.33799e-09
1.34795e-09
-1.13712e-08
-5.6807e-09
-5.10169e-09
-5.91416e-10
-5.15447e-09
5.96055e-09
-7.13484e-09
-8.78913e-08
-8.79409e-08
5.94815e-09
4.49e-09
7.03333e-11
-2.59754e-11
-4.46673e-11
5.57313e-12
-5.18126e-11
-2.28685e-11
3.28873e-12
-2.54423e-11
5.51045e-11
-3.80569e-11
-2.59597e-10
-2.44907e-10
2.75735e-11
-2.3353e-11
-3.69829e-11
-5.83262e-11
2.45813e-11
-7.09041e-11
-2.78481e-12
-2.83164e-11
-8.49799e-11
-1.14608e-10
-1.00789e-10
-3.05122e-11
8.22189e-12
-3.39794e-10
-4.08203e-10
3.36476e-11
-5.94224e-11
1.6017e-11
-1.33985e-11
3.22638e-11
-3.26078e-11
6.47349e-12
4.87604e-11
-1.18943e-10
4.2786e-11
-1.1824e-09
-1.65758e-10
-6.4255e-09
-1.75224e-09
2.20051e-08
-2.62496e-08
-9.6236e-09
-1.18427e-07
-1.09822e-07
-4.24352e-09
1.25503e-08
-6.69234e-09
-6.39738e-09
-4.08252e-10
5.53663e-10
-6.37841e-10
4.15882e-09
-1.36089e-09
1.06716e-09
-2.75854e-10
-5.79414e-11
2.19276e-10
-1.36392e-11
-4.37402e-12
2.24046e-11
3.13706e-11
2.59152e-10
3.59824e-12
7.23581e-11
1.05117e-11
4.92995e-11
-2.77167e-11
-1.74472e-11
5.89341e-11
9.58099e-11
5.7042e-11
-1.80571e-11
2.47572e-11
3.11237e-11
8.36117e-11
5.22134e-11
4.69718e-11
2.47343e-12
1.77709e-11
3.88683e-11
4.3982e-12
-5.46992e-11
-4.38258e-11
-3.61413e-10
-6.39696e-10
-1.35255e-08
-7.66219e-09
-1.48351e-07
-2.87259e-07
-2.8589e-07
-1.33814e-08
4.45648e-08
-4.45513e-06
-4.48318e-06
-2.47952e-06
-3.36016e-05
-4.69507e-05
-4.68218e-05
-0.000422974
-0.000423088
-0.00036936
-0.00789154
-0.00680065
-0.000985274
0.00266477
-1.78374e-05
-0.00257557
0.000213084
-0.00156073
-9.43707e-05
4.60432e-05
-0.00137271
-1.02532e-05
1.04468e-06
-1.12734e-07
-1.88274e-08
-1.43851e-09
-4.11336e-11
2.26173e-10
-7.1859e-10
1.04646e-10
-4.97701e-09
-2.75493e-10
-2.4315e-08
-3.08189e-09
-1.23181e-07
-2.8083e-08
4.16617e-07
-4.62354e-07
-1.22678e-07
-1.83837e-06
-1.67603e-06
-2.51237e-08
2.52932e-07
2.28982e-07
-9.28182e-08
1.36655e-07
-6.00012e-08
-1.31425e-06
-1.31451e-06
1.36672e-07
-9.29198e-08
2.28893e-07
-1.69749e-07
4.09682e-08
2.1353e-09
4.11711e-11
-2.05919e-11
-7.60775e-11
-7.47234e-11
-6.59204e-11
3.33461e-12
4.13631e-12
-5.10446e-11
2.27681e-11
-4.17799e-12
9.13057e-14
-8.46407e-12
-9.13476e-11
5.08185e-12
-1.42715e-11
-2.88945e-11
1.85351e-11
-5.04593e-11
-5.66862e-11
4.87542e-12
3.78608e-11
3.30093e-11
-1.2191e-11
3.97022e-11
2.62348e-11
-3.33522e-11
-1.77359e-11
8.74856e-12
2.1978e-11
9.93805e-11
3.1828e-11
6.13836e-12
7.88181e-11
-3.49968e-11
3.02635e-11
-1.30288e-10
2.18353e-10
2.83668e-10
6.96546e-11
1.08608e-09
-7.65041e-10
-1.3175e-09
3.53182e-09
5.74361e-09
-1.61993e-08
8.20986e-10
-9.86531e-08
-4.53018e-09
3.87411e-07
-4.476e-07
-3.81507e-08
-2.06038e-06
-3.66666e-07
6.82019e-06
-7.08051e-06
1.50783e-06
-6.60467e-07
1.83719e-07
-1.71307e-06
-3.67307e-08
1.82225e-06
-4.50067e-08
-3.80817e-09
-2.75723e-10
-6.16405e-12
-7.173e-11
-1.39533e-09
-2.06388e-08
-3.19922e-08
-5.35968e-07
-2.30645e-07
-2.30664e-07
-1.61398e-06
1.05542e-07
8.54043e-05
-6.26889e-07
-1.64981e-06
9.80266e-06
0.000861152
-1.78925e-05
-2.57674e-05
-3.06194e-06
-3.15517e-07
-2.65761e-08
-1.87385e-09
-1.59553e-10
-2.808e-10
4.99084e-10
2.57723e-10
2.42145e-10
4.45492e-10
-3.30241e-10
-1.38095e-10
-1.88281e-09
-5.64448e-09
1.09801e-08
-1.13792e-08
-6.78535e-10
1.35294e-10
2.28224e-09
4.46432e-08
-1.69652e-07
-8.30422e-08
-5.79077e-09
-3.10953e-09
3.1371e-10
2.05683e-08
-1.45079e-08
-2.47147e-08
5.38632e-08
1.09814e-07
-3.09856e-07
6.94068e-09
1.84732e-06
-5.16402e-06
4.43374e-10
2.64809e-05
-7.1331e-05
-6.13729e-07
-0.000297254
9.82315e-06
0.000861142
-0.000766451
-2.77449e-06
0.00030755
2.07248e-06
1.62921e-05
5.84191e-06
6.68856e-07
-4.0065e-07
-2.27404e-07
-3.0969e-06
-5.50863e-06
-3.66609e-05
-6.24628e-05
-0.000425298
-0.000610948
-0.00395594
0.00387603
-0.000517212
0.00163094
-0.0073341
-0.012749
-0.00579129
0.00808871
-0.000449531
0.000452641
0.00287624
0.00031828
0.00271637
-6.03167e-06
-1.82219e-06
-3.77149e-07
-4.94659e-07
-2.4736e-06
-1.65334e-06
-5.72937e-05
-6.85632e-06
-1.61513e-06
-3.06168e-06
2.15111e-06
1.18088e-07
-3.15404e-07
-2.65647e-08
-1.31475e-06
4.09075e-06
2.6115e-06
3.75128e-08
-1.66586e-05
-1.66605e-05
2.61224e-06
-1.31484e-06
4.08982e-06
-2.12345e-06
-9.67457e-07
4.26777e-07
-8.31739e-08
2.59444e-08
-7.8471e-06
6.08806e-06
-2.08225e-05
6.06011e-05
4.04718e-05
-1.52287e-05
2.84013e-05
0.000281552
0.00202946
0.000160838
0.00348953
7.99362e-05
0.000125384
-0.000157796
0.00211498
0.00559203
-0.0018667
0.00060619
-0.000751977
-0.00706089
0.0157627
-0.0111734
0.00174639
8.53144e-05
-0.000533371
0.00285028
-0.00151038
-6.74351e-05
0.00124981
-0.000148775
-0.000132676
-6.76041e-05
0.0101996
0.00645345
0.015752
0.00981234
0.0133071
0.0138851
-0.000721819
0.000129128
1.03317e-05
6.95111e-07
-2.12306e-06
7.50077e-07
1.09917e-05
-2.08166e-05
-1.52286e-05
-7.83695e-06
-9.67352e-07
2.19442e-07
1.22793e-08
5.65132e-10
-2.112e-11
4.53281e-11
-1.46474e-10
-2.44703e-09
8.51076e-09
1.0472e-07
-2.34143e-08
-9.43153e-08
3.09645e-06
8.54045e-05
4.18124e-05
-6.72748e-05
-7.38834e-06
3.40561e-06
4.47923e-05
1.06438e-06
1.63643e-05
1.15075e-05
-0.000369983
0.00049789
0.00397087
0.000636285
-2.39619e-05
-0.000148689
0.000134929
7.40184e-05
0.000734058
6.0897e-06
-4.91135e-08
8.4467e-08
-1.32623e-10
-4.14678e-10
-7.4235e-11
4.67914e-11
1.32944e-09
2.60181e-08
4.27162e-07
-2.57621e-05
7.39608e-05
4.26619e-07
4.5914e-08
3.75357e-09
5.26665e-09
-6.71536e-10
5.27541e-10
-6.25914e-10
-2.42699e-11
-2.35041e-12
1.42745e-11
-1.79786e-11
-3.72414e-11
9.46331e-12
-2.98127e-11
2.86797e-11
7.3995e-11
-4.03212e-11
-1.09837e-11
-7.66775e-11
-9.31012e-11
-7.74376e-11
-5.38973e-11
-1.14558e-10
-2.61037e-11
1.83088e-07
6.33162e-06
8.18388e-10
-1.60715e-07
0.00111411
8.0096e-05
-0.0020818
5.77321e-11
1.24109e-10
1.59454e-07
9.33476e-08
9.25678e-09
-9.74152e-06
6.94396e-09
-3.41964e-07
6.01838e-11
-3.06836e-09
-4.47398e-12
-2.10142e-11
3.1851e-11
0.00740786
0.00956023
-0.000839486
-0.00218175
-0.000839862
0.0156316
0.0157525
-3.82691e-11
4.66101e-13
1.0173e-10
2.53407e-12
8.4172e-11
3.60278e-11
-3.71071e-10
-3.59889e-10
2.02091e-11
-6.40975e-11
9.36008e-12
-1.42615e-11
-1.47428e-11
-1.23853e-10
1.06199e-11
5.0831e-11
6.73455e-11
-3.61905e-12
2.10962e-11
-6.38097e-11
4.89031e-12
2.82193e-11
1.42951e-12
9.37058e-11
4.9675e-11
-3.05965e-11
-1.32824e-11
-8.2892e-11
-3.91919e-11
6.52303e-11
2.27987e-11
-2.4925e-11
-6.84663e-11
-3.85831e-12
-1.65762e-11
1.57798e-11
-2.2699e-11
2.73581e-11
9.13864e-11
8.89198e-12
-3.87077e-11
-4.80251e-11
-1.03186e-11
-6.24164e-12
-4.32043e-11
-7.46977e-11
1.05508e-11
-3.46523e-11
-5.84251e-11
-3.13989e-12
6.84903e-11
3.60728e-11
3.5987e-11
1.55637e-11
2.07125e-11
-1.94548e-11
2.28006e-11
-7.82639e-11
-1.81391e-11
4.36796e-11
1.90386e-11
-4.1124e-11
-2.6545e-11
-7.72628e-12
3.59963e-11
-3.67217e-12
1.52701e-11
-1.11542e-10
1.02136e-11
-4.60455e-11
-2.95504e-11
-2.85557e-10
-3.01234e-10
4.36729e-10
-3.52463e-10
5.33063e-10
-1.34023e-09
-6.78799e-10
4.10911e-09
-6.47322e-09
9.92735e-10
-1.01882e-10
-2.94878e-10
1.93313e-10
-2.96597e-11
-2.71169e-10
-2.23056e-09
1.61573e-09
4.82415e-07
9.78755e-06
0.000170498
0.00285043
-0.00259977
0.00835662
-0.00808331
0.00091345
0.0106754
-0.000107745
-0.0107001
0.00808832
-0.00579165
-0.0127488
-0.00733401
-0.0111735
-0.0114045
0.0157625
0.00287385
0.00211517
1.24716e-05
-0.00694821
-0.0137583
-0.00728318
-0.0119207
-0.00728287
-0.013759
-0.00694803
-0.011405
0.0157625
-0.007334
-0.0111737
-0.0127491
-0.00579141
0.00808853
-0.0107003
0.0123667
-0.0122901
0.00835645
0.000913689
0.0106757
-0.0080833
0.00541269
0.0123405
0.00956023
0.00764909
0.0160705
0.00685694
0.00481938
0.00439832
-0.0079095
-0.00790939
0.00481931
0.00685653
0.0160699
0.00764895
0.00956016
0.00740723
0.0123421
0.00541367
0.00562377
0.00635032
-0.00185805
0.0156313
0.0156056
0.0157515
0.013767
0.0133066
0.0138849
0.0133071
-0.0138494
-0.00151034
-0.00151028
-0.00472857
0.0137667
0.0157519
0.0156058
0.0156319
0.00634983
0.0056231
0.00366213
0.00107556
-9.98605e-05
-0.00115203
-0.00365628
-0.00590458
-0.00725072
-0.0161018
-0.0162652
0.00163091
-0.000517262
0.00266468
-0.000766415
0.000307551
-7.13312e-05
2.64792e-05
-5.16385e-06
1.84718e-06
-3.09895e-07
1.09776e-07
-1.61124e-08
5.7169e-09
-7.69533e-10
2.58608e-10
-1.0899e-10
1.22958e-11
-6.87435e-11
-4.02372e-11
-1.29749e-10
6.95681e-11
3.51266e-11
4.60536e-11
-2.96717e-11
2.2537e-11
-5.77632e-12
3.80696e-12
-2.57819e-11
-7.72362e-11
-2.01639e-10
-2.23488e-09
1.61358e-09
4.81418e-07
9.78498e-06
0.000170474
0.00285036
-0.00259967
-0.00106633
0.00082457
0.000142903
-0.00377129
-0.00377127
0.000824505
-0.00106626
0.000142945
-0.00161086
-0.0122902
0.0123668
-0.000449373
-0.00925589
0.00155922
-7.89575e-06
0.00111416
-2.51774e-05
4.60341e-05
-0.00137275
-0.000398987
-0.00137275
0.001559
0.00287376
0.00559167
0.00211523
-0.000698122
-0.000698039
0.00559179
0.000603458
-0.00270162
0.00348941
0.00348942
7.99763e-05
-0.00270158
0.000606187
0.00187545
0.00254333
0.00174658
-0.00706146
0.00184223
0.00120245
0.0109067
-0.00402487
0.00120403
-0.00305288
-0.00792126
-0.0165486
-0.0119597
0.0132705
-0.00379463
0.0021749
0.00217494
6.83678e-05
0.000810537
7.69831e-06
-0.000211234
7.97081e-05
1.04077e-06
-1.69366e-05
6.32687e-06
1.35962e-07
-1.06522e-06
4.18834e-07
1.2399e-08
-5.63596e-08
2.3937e-08
8.75699e-10
-2.62216e-09
1.22232e-09
6.67116e-11
-1.50552e-10
-1.30474e-11
-1.04443e-12
-4.51128e-11
6.35513e-12
-5.17638e-11
8.65498e-12
-1.41688e-11
-1.77747e-11
2.61033e-11
-5.29791e-11
-2.1679e-11
1.65774e-11
-1.4105e-11
3.65428e-11
-8.08602e-11
1.13996e-11
-2.69446e-11
7.50539e-12
1.79365e-11
-3.32494e-11
4.4565e-12
4.58622e-11
1.47111e-11
-2.42195e-11
1.35958e-11
-7.41626e-12
1.12144e-11
6.98888e-11
4.27796e-11
-7.86715e-12
5.66744e-11
9.67125e-12
2.65827e-11
4.6622e-11
-1.50416e-11
2.25292e-12
-5.52674e-11
5.25027e-11
-1.00111e-11
-6.3161e-11
3.75434e-11
1.75099e-11
-7.03372e-11
5.42188e-11
2.06303e-11
-1.00018e-12
-3.13302e-11
3.44489e-11
-6.88869e-11
-4.64773e-11
-7.323e-11
-1.47737e-09
-1.88043e-08
-1.12884e-07
1.05052e-06
-1.02652e-05
-1.7833e-05
-0.00257557
0.00271628
-0.0027802
0.00253203
-0.000870632
0.00027928
-9.00857e-05
2.29199e-05
-7.07986e-06
1.50745e-06
-4.62311e-07
8.44394e-08
-2.62186e-08
4.13436e-09
-1.3012e-09
1.44586e-10
-2.54229e-11
-3.46276e-10
-2.771e-10
-2.55455e-10
2.95722e-10
-5.31563e-10
2.4878e-10
-5.11557e-09
-6.31562e-09
-6.63583e-09
1.25535e-08
1.10852e-08
-4.28745e-09
-1.18468e-07
-9.56436e-09
-2.62316e-08
-1.861e-09
2.20127e-08
-2.43185e-08
-3.07738e-09
1.04706e-07
-9.86159e-08
2.05472e-08
-2.68626e-10
5.2829e-09
-2.05805e-10
-1.12431e-09
1.88413e-10
-1.20342e-11
-1.13202e-11
-6.75453e-11
8.77082e-12
9.16002e-12
4.80131e-11
4.03539e-11
1.55668e-11
-4.3729e-11
5.24891e-12
-1.61384e-11
1.05359e-11
-7.29685e-12
3.56086e-11
-1.97684e-11
9.31871e-11
8.83762e-13
-1.11502e-11
-4.20948e-11
-2.05975e-11
-9.57744e-12
-6.08877e-13
-1.44112e-11
4.70604e-11
1.72782e-11
-1.74814e-11
-4.61142e-11
-3.6425e-11
6.39804e-11
4.53364e-09
1.18107e-07
2.15098e-06
2.84085e-05
0.000281588
0.00202956
-0.00196927
-0.0055318
-0.00435436
-0.00208142
0.000757987
8.50523e-05
-0.0001073
-0.000751999
-0.00925584
-7.9126e-06
0.00111404
8.00681e-05
0.000125336
0.00021306
-0.00156084
0.00147766
-0.00303665
-0.000756392
-0.0162267
-0.000717498
-0.00175696
0.000101542
0.000683339
0.000721178
-0.00217132
1.31261e-05
0.000497906
0.00397106
1.14083e-05
-0.00395549
-0.00679671
-0.00789102
-0.000369197
-0.000611192
-0.000985039
-0.0004251
-3.66627e-05
-6.24356e-05
-3.36062e-05
-2.48565e-06
-5.50874e-06
5.84878e-06
1.62073e-05
4.18425e-05
0.000861129
-0.000922861
0.000320248
-0.000337377
-3.64961e-05
0.000924573
-1.86141e-07
-6.03632e-06
4.59551e-05
-2.54009e-05
-0.00161093
-0.000381298
-0.000247627
0.000606418
-0.0018664
1.23743e-05
0.00606134
-0.00149987
-0.0083777
-0.00192383
-0.00142503
-0.000538512
-9.28862e-05
-9.90503e-06
-7.69691e-07
-4.90725e-08
-2.8548e-09
-1.58502e-10
1.48939e-11
3.58724e-11
-6.11422e-11
-9.47049e-12
-4.37648e-11
-6.3187e-12
-3.78516e-10
-7.63231e-09
-1.48767e-07
-4.0055e-07
6.69171e-07
-3.09472e-06
-2.27386e-07
-1.45612e-08
-2.4692e-08
5.388e-08
8.53041e-09
3.87382e-07
-4.47599e-07
1.04682e-07
-1.23165e-07
-2.8188e-08
4.16592e-07
-2.06023e-06
-3.667e-07
6.81959e-06
-2.93823e-05
-3.95532e-06
9.1867e-05
-1.73923e-06
-9.35589e-05
2.69941e-05
1.04652e-07
8.54034e-05
-0.000297254
9.8141e-06
-1.65143e-06
-1.82126e-06
-3.76654e-07
-3.42111e-07
-7.12487e-06
1.82189e-06
-3.66651e-08
6.33169e-06
-2.52364e-05
1.14128e-09
3.09661e-06
1.07502e-06
1.63608e-05
0.000318148
0.00287619
0.000452749
-0.000449472
0.00387575
-0.000369871
-0.000220186
0.000636189
0.0064528
0.0101995
0.00127819
0.000734408
-2.38798e-05
-6.73197e-05
4.48026e-05
3.40817e-06
-9.3838e-08
-2.33084e-08
-2.41604e-09
-1.54634e-10
-8.18842e-10
-1.34618e-09
3.51554e-09
3.12787e-10
2.05205e-08
-2.42955e-08
5.29428e-09
-6.40401e-09
-1.87143e-09
2.20125e-08
-3.13187e-09
-3.80743e-09
-4.504e-08
-3.82326e-08
-2.06371e-08
-4.57666e-09
-9.86733e-08
7.52324e-10
-3.20941e-08
4.18906e-07
4.58519e-08
-1.06541e-06
1.35962e-07
6.32766e-06
4.28229e-07
-1.69387e-05
1.04022e-06
7.97129e-05
2.08158e-06
-0.00021124
7.67087e-06
0.000810556
-2.82347e-06
-0.00179321
-0.000251336
0.00692527
0.00908848
-0.000425206
-0.000157859
-0.000157875
0.00692542
-0.000251315
-0.00179317
-0.000425193
-0.00379447
0.00120415
0.0132705
-0.000692263
-0.0119596
-0.0165477
-0.00792137
-0.0162658
-0.00305274
-0.00149984
0.00606146
-0.00186651
0.00184254
0.00254379
-0.00706137
0.00174672
-0.000752126
-0.000247892
-0.000533416
-4.43695e-05
0.000160788
-1.42351e-05
1.99236e-06
-0.000337417
6.83673e-05
-0.000681476
0.000258262
-6.77788e-05
2.38767e-05
2.38729e-05
1.75116e-06
-4.82014e-06
5.5709e-07
1.7793e-06
1.59582e-07
-2.74942e-07
4.46741e-08
1.11751e-07
1.13024e-08
-1.36668e-08
2.7828e-09
6.10013e-09
5.91575e-10
-6.66702e-10
1.59767e-10
2.82514e-10
8.52369e-12
-2.09993e-11
-8.53102e-11
2.92826e-11
-2.83012e-11
4.70143e-11
2.68032e-11
4.12111e-11
-3.88569e-11
6.55463e-11
-1.24764e-11
-9.75474e-11
6.83624e-11
1.28999e-09
2.22775e-10
-2.67734e-09
9.40483e-10
2.39666e-08
3.81661e-09
-5.63327e-08
1.24653e-08
4.45999e-08
1.11744e-07
9.19311e-09
-1.36325e-08
6.16402e-09
-6.26214e-10
2.67153e-10
-1.14803e-11
-3.22239e-12
6.12294e-11
-4.22797e-11
-5.63412e-11
1.63612e-10
-6.29813e-11
-6.99392e-10
-1.3525e-08
-2.87696e-07
-4.47798e-06
-4.68362e-05
-0.000422929
-0.000422929
-0.00837713
-0.00789094
-0.000369147
-4.68927e-05
-0.000681398
1.06837e-05
0.000258254
1.34339e-05
-6.77712e-05
4.80237e-06
-6.85624e-06
-4.48165e-05
1.34309e-05
-9.73288e-06
-3.55555e-06
1.75099e-06
-4.82054e-06
1.77961e-06
-2.75006e-07
1.59525e-07
-2.07304e-07
9.34575e-08
-9.51792e-09
1.12466e-08
-3.93773e-10
6.21167e-10
6.59883e-10
-1.538e-11
6.97267e-11
-8.40977e-12
-2.47772e-11
-7.37739e-11
-5.38502e-11
1.12069e-11
-6.45111e-11
-8.08732e-12
-9.74761e-12
-7.47544e-12
5.2919e-11
-6.48432e-12
4.32411e-11
4.49177e-11
-1.36026e-10
-9.58034e-12
-4.24499e-11
8.72282e-13
-7.74486e-11
-2.45322e-11
3.75218e-11
2.90428e-11
2.68323e-11
-4.3715e-11
-1.21468e-11
-2.68415e-12
-5.11949e-11
1.17341e-11
-6.00733e-11
-3.15743e-11
-1.03294e-12
-2.40168e-11
5.46526e-11
-2.8479e-11
-8.1103e-11
-5.34239e-11
-1.82831e-11
-6.68296e-11
-9.69073e-11
1.62194e-13
2.76405e-11
-1.3349e-11
5.54707e-12
1.08229e-12
1.7783e-11
3.25349e-13
2.07268e-11
5.78237e-12
1.34041e-11
-2.30469e-11
-1.64072e-11
-4.34657e-11
-2.46566e-11
-2.45131e-11
-9.64834e-12
-6.40758e-12
3.04785e-11
1.57808e-11
1.8349e-11
-9.52909e-12
-2.44e-10
-4.31231e-09
-6.12014e-08
-6.16301e-07
-3.08301e-06
-5.73029e-05
1.06994e-05
-5.73044e-05
-1.02745e-05
-2.80613e-06
0.00266463
-1.7876e-05
0.000861129
9.81536e-06
0.000320249
-1.74188e-06
9.18732e-05
-3.95622e-06
-2.93795e-05
2.29216e-05
-1.17171e-06
4.40389e-06
4.08998e-06
3.70948e-07
-2.42124e-05
6.39211e-05
6.06036e-05
1.1799e-05
-0.000260492
-7.07872e-06
-9.00951e-05
0.000279268
-0.000337375
0.000924556
-3.64743e-05
-0.000870652
1.31626e-05
0.000721127
0.000683362
0.000101529
-0.00217125
0.00253213
-0.00278019
-1.59801e-07
-0.000922845
0.00271628
-0.00257553
0.00287629
0.000213068
-0.00156079
-9.43792e-05
0.0014777
-0.000295573
-0.00303666
-0.00459427
-0.000756356
-0.000717335
-0.0162271
0.0101998
0.00981221
-6.76275e-05
-0.000721789
-0.00130707
0.000103844
0.000465447
0.000465529
-0.000132624
-0.00023078
1.17976e-05
6.05984e-05
6.3931e-05
-0.000260498
-7.08834e-06
-2.42142e-05
3.71933e-07
4.08987e-06
4.40472e-06
-1.17218e-06
-1.83841e-06
-2.51152e-08
2.28991e-07
2.5291e-07
-1.22682e-07
2.19702e-07
1.22859e-08
6.03975e-10
3.96427e-11
-4.23326e-11
-8.29945e-11
-7.2872e-11
1.95592e-10
-1.50773e-11
9.08385e-10
-1.18797e-09
2.04794e-10
-3.89851e-10
-1.86e-10
9.92108e-10
-1.7063e-10
-2.65542e-10
8.69938e-12
-1.04901e-10
-1.12292e-11
-3.51173e-11
-8.93891e-11
-6.57324e-11
-3.30971e-11
6.36208e-11
-2.0984e-11
-5.60055e-11
-4.39579e-11
-7.86459e-12
-3.27955e-11
-1.68561e-11
-1.61508e-10
-3.12019e-09
-4.9115e-08
-6.60947e-07
-7.39408e-06
-7.83557e-06
7.39567e-05
0.000134887
1.09916e-05
6.10264e-06
-9.66935e-07
-2.12312e-06
-2.0819e-05
-2.17789e-05
-1.66605e-05
3.68231e-08
2.61117e-06
2.61205e-06
-1.31468e-06
-1.31442e-06
-5.99462e-08
1.36622e-07
1.36763e-07
-9.27643e-08
-1.09692e-07
-4.28862e-09
1.10876e-08
1.26297e-08
-1.18465e-07
-9.55911e-09
-8.30188e-08
4.27938e-07
7.49919e-07
4.45668e-08
2.59549e-08
-5.76805e-09
-1.13467e-08
-6.27449e-09
-2.98608e-10
5.39331e-10
5.7643e-10
-6.5558e-09
-5.89622e-10
-3.44375e-10
1.38734e-09
2.32499e-09
1.31507e-10
1.72815e-11
-2.77623e-11
1.2874e-11
-5.77598e-11
-2.08416e-11
-4.93366e-11
-2.68809e-11
-4.76443e-11
-1.08949e-10
5.80079e-11
1.80833e-12
5.00844e-11
4.19063e-11
7.05392e-11
5.77796e-12
1.22161e-10
-6.46522e-10
-3.17128e-10
-1.80261e-10
-6.0971e-11
-3.53712e-11
-2.37475e-10
-3.74875e-11
-1.40575e-09
-3.32738e-10
-4.95888e-09
1.41637e-11
-1.58361e-09
2.86803e-09
-1.60458e-09
-3.20626e-08
-5.36129e-07
-1.13079e-07
1.04361e-06
2.07733e-06
0.00030752
-6.28321e-07
8.54009e-05
1.05366e-07
2.69922e-05
-3.42316e-07
6.81975e-06
-3.66871e-07
-2.06005e-06
1.50744e-06
-1.22629e-07
2.52838e-07
2.28908e-07
-2.51644e-08
-1.83819e-06
-1.67586e-06
-1.31484e-06
-1.3142e-06
-2.12314e-06
1.03269e-05
0.000129063
0.00124965
-0.000148753
-0.000148752
-6.76802e-05
-0.000721737
-0.00175711
-0.00130681
-0.000186157
0.000125353
-1.65548e-06
-6.03433e-06
-1.82239e-06
-2.47367e-06
-1.61435e-06
-6.85543e-06
4.80144e-06
-5.36106e-07
5.57133e-07
-2.30652e-07
-4.94501e-07
-5.84321e-08
-4.89122e-09
-3.20929e-10
2.87281e-11
7.3156e-11
-3.99341e-11
-2.95686e-13
-2.84966e-11
-9.17132e-11
-1.45161e-09
-1.8807e-08
4.59264e-08
1.84678e-06
6.96189e-09
3.87319e-07
-4.48835e-09
-4.47493e-07
-3.81674e-08
4.16544e-07
-2.8246e-08
-1.23115e-07
8.43826e-08
-4.62385e-07
-4.91426e-08
8.46929e-09
5.38796e-08
-1.48838e-07
-2.48705e-06
-3.35731e-05
-4.45278e-06
-2.85947e-07
-1.33907e-08
-7.34257e-10