/*--------------------------------*- C++ -*----------------------------------*\
| =========                 |                                                 |
| \\      /  F ield         | OpenFOAM: The Open Source CFD Toolbox           |
|  \\    /   O peration     | Version:  2306                                  |
|   \\  /    A nd           | Website:  www.openfoam.com                      |
|    \\/     M anipulation  |                                                 |
\*---------------------------------------------------------------------------*/
FoamFile
{
    version     2.0;
    format      ascii;
    arch        "LSB;label=32;scalar=64";
    class       volScalarField;
    location    "0.1";
    object      gradTz;
}
// * * * * * * * * * * * * * * * * * * * * * * * * * * * * * * * * * * * * * //

dimensions      [0 -1 0 1 0 0 0];

internalField   nonuniform List<scalar> 
2658
(
-0.0354976
-0.0301318
-0.00575659
-0.00385303
-0.00803931
-0.00787831
-0.00292263
-0.00294255
-0.00385151
-0.007876
-0.0169549
-0.023239
-0.0436535
-0.0459725
-0.0407658
-0.0413207
-0.0469179
-0.0412806
-0.04033
-0.0452014
-0.0427492
-0.0390923
-0.0415185
-0.0219174
-0.0382182
-0.0432734
-0.0424131
-0.0408416
-0.0464119
-0.0455305
-0.0464112
-0.0424129
-0.0432726
-0.0415169
-0.0382174
-0.0219163
-0.0194311
-0.0447191
-0.0390921
-0.04275
-0.0452026
-0.0403302
-0.0412802
-0.0416811
-0.0158918
-0.0157918
-0.016955
-0.0418388
-0.0413217
-0.040766
-0.0459718
-0.043654
-0.040082
-0.0475623
-0.0436777
-0.0407331
-0.0418016
-0.0158029
-0.023019
-0.0413154
-0.041802
-0.040734
-0.0436781
-0.0475625
-0.0196873
-0.0232839
-0.0169237
-0.00979339
-0.00760855
-0.00760835
-0.00374376
-0.00278891
-0.0012017
-0.000936561
-0.000418817
-0.00096727
-0.000934096
-0.000417829
-0.000298045
-0.00028423
-0.00092714
-0.00120129
-0.00277907
-0.00293126
-0.00434129
-0.000485913
-4.16187e-05
-2.88528e-06
-1.69963e-07
-8.81597e-09
-4.24252e-10
4.04836e-12
1.49025e-11
6.27197e-11
2.60126e-11
-3.14894e-11
-1.27905e-11
8.44326e-11
2.50928e-11
2.7504e-11
3.42805e-11
4.03593e-11
-8.07684e-12
8.3101e-11
-2.34437e-11
4.85304e-11
1.13496e-10
-7.24962e-11
-2.36212e-11
-6.75224e-11
-1.57048e-11
6.71087e-13
1.76284e-10
5.75818e-11
2.22764e-12
2.94498e-11
-5.29981e-11
7.31278e-11
4.5672e-11
-2.19383e-11
4.73148e-11
-7.7914e-12
-1.37512e-11
9.85961e-11
3.19439e-12
4.55733e-11
-4.58915e-11
3.57989e-12
-3.63664e-11
6.07627e-11
8.09552e-11
1.18282e-10
-6.21568e-11
-1.4183e-10
4.03071e-11
-1.86678e-11
-3.50063e-11
-2.57439e-11
-4.53192e-11
-7.14288e-11
3.83389e-11
-5.1872e-11
-2.41747e-11
1.72658e-11
-2.91617e-10
-1.18895e-10
-4.71312e-11
2.91884e-12
-1.4589e-11
-1.08186e-10
-5.45779e-11
-1.27587e-10
-4.99302e-11
-9.84024e-11
-4.0248e-11
5.77282e-11
9.41837e-12
3.51512e-11
8.13659e-11
5.29492e-11
5.35763e-11
-3.13603e-11
-6.10972e-11
2.63274e-11
9.69587e-11
5.39529e-12
5.50836e-11
1.28689e-11
2.12034e-10
4.80837e-11
-2.78021e-10
-7.56454e-10
-3.40995e-09
-1.65621e-08
-7.34547e-08
-3.26083e-07
-1.3619e-06
-5.6432e-06
-2.18099e-05
-8.25642e-05
-0.000287835
-0.000958703
-0.00291205
-0.0082973
-0.00780645
-0.0075439
-0.0076518
-0.00787587
-0.00803914
-0.00385292
-0.00787834
-0.0169235
-0.0232839
-0.0196873
-0.0232391
-0.0350048
-0.00434128
-0.000485907
-4.16183e-05
-2.88529e-06
-1.69905e-07
-8.7597e-09
-4.40379e-10
-8.75133e-11
-3.67953e-11
-6.01858e-11
-3.96296e-11
-4.70583e-11
-1.38165e-11
-1.10762e-11
-1.37728e-12
6.93175e-11
2.23101e-11
-1.73102e-11
-8.0538e-11
-7.41578e-11
1.0088e-10
7.20495e-11
1.02517e-10
7.1332e-11
-9.47674e-11
-5.06078e-11
2.99973e-11
-3.07401e-11
2.3017e-11
5.87817e-11
-3.33685e-11
8.76769e-11
4.61025e-11
1.30406e-10
-8.95166e-12
5.28937e-11
3.60702e-11
1.74941e-11
1.63968e-11
9.22332e-12
2.07755e-11
5.33387e-12
7.25699e-11
5.94787e-12
-2.68443e-11
7.83921e-11
2.77765e-11
-3.93292e-11
-6.41544e-11
5.97343e-12
-8.33079e-11
8.62411e-12
5.8133e-12
7.90798e-11
2.17762e-11
4.01583e-11
-4.22152e-11
1.87573e-11
-3.15057e-11
-1.42486e-10
-1.17622e-10
-1.41148e-10
-7.10397e-10
-7.98104e-10
-3.30319e-09
-1.5193e-08
-1.88305e-08
-7.05662e-08
-3.02539e-07
-3.67558e-07
-1.31931e-06
-5.32525e-06
-6.28446e-06
-2.14012e-05
-7.94174e-05
-9.01063e-05
-0.000285913
-0.000942898
-0.00101056
-0.00289627
-0.00827913
-0.00873425
-0.0200427
-0.0178826
-0.0293146
-0.0293143
-0.0408405
-0.0487227
-0.034011
-0.0299317
-0.050617
-0.0271161
-0.0271165
-0.0273559
-0.0502763
-0.0276888
-0.0276891
-0.0278015
-0.0522131
-0.0398959
-0.0398959
-0.0676663
-0.104217
-0.0676664
-0.0691713
-0.10327
-0.0700982
-0.0824111
-0.0532689
-0.0504896
-0.0392534
-0.0442798
-0.072489
-0.0577089
-0.0278014
-0.02747
-0.0538543
-0.0395515
-0.0692286
-0.103291
-0.0701619
-0.075959
-0.0730685
-0.0736638
-0.0730683
-0.0538543
-0.0392533
-0.0504898
-0.0700956
-0.10327
-0.0691706
-0.0442804
-0.0724891
-0.0759585
-0.0701651
-0.10329
-0.0692293
-0.0395515
-0.0442757
-0.0680877
-0.104277
-0.0676575
-0.0401606
-0.0522258
-0.0276379
-0.0398743
-0.0300024
-0.0316659
-0.00436824
-0.0004942
-4.15286e-05
-2.78045e-06
-1.56866e-07
-7.74024e-09
-3.71045e-10
-3.60165e-10
-1.5719e-10
-1.8524e-10
-1.73009e-10
-2.19208e-10
-8.38277e-10
-4.123e-09
-1.7558e-08
-8.37631e-08
-3.38567e-07
-1.50105e-06
-5.71919e-06
-2.32579e-05
-8.18958e-05
-0.000298034
-0.000934049
-0.00293123
-0.0038514
-0.0029425
-0.00292256
-0.00278896
-0.000927295
-0.00040884
-0.000927307
-0.000287042
-0.000297978
-0.000302614
-8.58788e-05
-8.25255e-05
-3.43126e-05
-2.38956e-05
-3.41111e-05
-8.19017e-05
-0.000109935
-8.13336e-05
-7.95784e-05
-3.24637e-05
-2.20441e-05
-2.16243e-05
-7.94249e-05
-0.000107773
-0.000285798
-0.000404143
-0.000911931
-0.00280254
-0.00373305
-0.00765186
-0.00981828
-0.0157919
-0.0418388
-0.0442758
-0.0398738
-0.0276377
-0.0302651
-0.010757
-0.00424921
-0.00423423
-0.000489673
-4.18335e-05
-2.85744e-06
-1.6471e-07
-8.30298e-09
-3.91296e-10
-7.99869e-12
-3.35064e-11
1.87825e-11
2.92445e-11
5.88047e-11
2.74729e-11
3.93218e-11
-1.08745e-11
-6.83472e-11
-5.17971e-11
-7.35221e-11
-8.9152e-11
-1.64356e-11
-1.86133e-11
-4.95475e-11
-2.54291e-10
-3.8277e-10
-9.29709e-10
-1.0329e-09
-2.38969e-10
-3.50995e-10
-7.89869e-10
-4.0978e-11
-5.69492e-11
2.99569e-11
2.07877e-10
-7.30121e-13
-8.00366e-10
-5.08406e-10
-9.87158e-11
-6.47359e-10
-1.38394e-08
-9.43291e-09
-1.5665e-08
-2.82522e-07
-1.83349e-07
-5.7077e-08
-2.84278e-09
-2.72043e-09
-7.03506e-10
-7.11431e-10
-3.72415e-09
-3.7245e-09
-1.06095e-09
-7.56681e-10
-1.49637e-10
-6.88599e-10
-1.46691e-08
-2.71306e-07
-2.59302e-07
-4.2142e-06
-3.07979e-06
-4.4684e-06
-5.97515e-05
-4.41477e-05
-1.51555e-05
-1.0022e-06
-9.64037e-07
-3.13764e-07
-3.18892e-07
-1.39633e-06
-1.40327e-06
-4.67927e-07
-3.32133e-07
-7.70963e-08
-2.44819e-08
-1.70905e-08
-5.87506e-09
-1.62398e-08
-7.61638e-08
-2.26727e-08
-1.59043e-08
-3.44465e-09
-1.03751e-09
-1.57918e-09
-1.52645e-09
-6.78337e-10
-2.09371e-10
-1.83755e-10
-5.27564e-11
-9.0291e-12
4.6604e-11
-6.5479e-11
-9.866e-11
-9.99119e-11
-6.13653e-11
-1.24942e-10
-1.05172e-10
-9.61725e-11
-1.33242e-10
-5.07541e-11
-2.07847e-11
-9.05303e-10
-6.08251e-10
-3.44227e-09
-2.9671e-09
-1.55097e-08
-2.8599e-07
-4.57015e-06
-4.36167e-06
-5.95354e-05
-5.81422e-05
-0.000654676
-0.000519485
-0.000642516
-0.00503922
-0.00470777
-0.00189753
-0.00019122
-0.000185922
-7.94158e-05
-7.95696e-05
-0.000285778
-0.000284213
-0.000109932
-8.13287e-05
-2.20245e-05
-7.82907e-06
-5.65208e-06
-2.1207e-06
-5.48342e-06
-2.20418e-05
-7.56158e-06
-5.43232e-06
-1.35853e-06
-4.4362e-07
-6.68004e-07
-3.49641e-08
-3.3924e-08
-1.52271e-08
-4.07485e-09
-3.38448e-09
-9.06197e-10
-8.58222e-10
-3.43466e-09
-1.59531e-08
-6.862e-08
-6.8686e-08
-8.15753e-08
-3.1157e-07
-3.6267e-07
-1.2774e-06
-1.49784e-06
-5.4102e-06
-6.22764e-06
-2.06251e-05
-2.36718e-05
-7.93792e-05
-8.95468e-05
-0.000273246
-0.000303453
-0.000916324
-0.00100276
-0.00273356
-0.00287833
-0.00731304
-0.00792317
-0.0182084
-0.0196793
-0.0182081
-0.0178823
-0.0200417
-0.00873387
-0.00827875
-0.00300635
-0.00289609
-0.00101049
-0.000942848
-0.000315507
-0.000285895
-9.01003e-05
-7.94132e-05
-2.46607e-05
-2.13994e-05
-6.28373e-06
-5.32484e-06
-1.56753e-06
-1.31917e-06
-3.67538e-07
-3.02548e-07
-8.55777e-08
-7.04535e-08
-1.88281e-08
-1.85557e-08
-6.51789e-08
-3.54176e-09
-1.66879e-10
-1.85266e-11
-3.18169e-11
-5.24957e-11
-7.19202e-10
-1.4047e-08
-2.46878e-07
-3.89494e-06
-5.15777e-05
-0.000534723
-0.00391075
-0.0168978
-0.0377422
-0.0319568
-0.0319565
-0.0233587
-0.0339859
-0.0134665
-0.0055384
-0.0296536
-0.0234915
-0.0163894
-0.00974355
-0.0102466
-0.0105828
-0.00792289
-0.00731282
-0.00287819
-0.00273348
-0.00332497
-0.00423707
-0.000490595
-0.000303433
-0.000273238
-0.000916267
-0.00100275
-0.00155096
-0.000148977
-8.95422e-05
-7.93731e-05
-2.36703e-05
-2.06247e-05
-2.85879e-05
-4.09293e-05
-2.7027e-06
-1.50357e-07
-8.15921e-08
-3.11467e-07
-1.2773e-06
-5.40975e-06
-6.22706e-06
-1.0905e-05
-6.54578e-07
-1.46768e-07
-7.13339e-09
-2.95887e-10
-3.29436e-10
-1.15506e-10
-6.81231e-10
-2.05275e-10
-7.07989e-10
-8.25511e-10
-3.32922e-09
-4.00681e-09
-1.59403e-08
-1.8625e-08
-3.39007e-08
-7.38419e-09
-3.98756e-09
-5.16149e-09
-1.52256e-09
-1.2117e-10
-2.16114e-11
-1.30768e-11
-1.06537e-10
-4.92522e-11
-7.70015e-12
-2.82992e-11
-3.5076e-11
-1.63077e-12
-6.24808e-11
-7.85368e-11
-8.77753e-11
-6.40405e-11
-7.86529e-11
-9.77386e-11
4.66085e-11
2.36223e-11
1.28643e-11
-1.40919e-10
4.62562e-11
2.73601e-11
-2.10646e-11
-5.25243e-11
3.79043e-11
6.17202e-11
7.87977e-12
2.3956e-11
-3.22915e-11
-3.31154e-11
-2.6355e-11
5.81946e-11
5.86848e-11
6.09902e-11
2.98065e-11
1.16776e-10
-6.25919e-11
5.68048e-11
-6.08562e-11
1.32529e-10
-1.73655e-12
-9.87143e-12
2.5718e-11
-2.97601e-11
-6.37043e-12
3.27764e-11
1.07629e-10
-6.21314e-11
1.85764e-11
-6.24452e-11
-3.68383e-10
-8.10285e-09
-1.62493e-07
-2.85449e-06
-2.65421e-06
-4.03994e-05
-0.000487652
-0.00423138
-0.0256769
-0.0265939
-0.0665365
-0.0340109
-0.0487241
-0.0857266
-0.0693011
-0.0692993
-0.0857269
-0.0883549
-0.0388865
-0.0697002
-0.0502379
-0.0528969
-0.0270609
-0.039335
-0.0438118
-0.0696639
-0.103656
-0.0708133
-0.0828142
-0.0512436
-0.0743426
-0.0758107
-0.074301
-0.0771479
-0.0806002
-0.0995821
-0.0771506
-0.0883553
-0.0697015
-0.0388864
-0.0299099
-0.0528967
-0.0393345
-0.0270608
-0.0272469
-0.0522256
-0.0401613
-0.0676567
-0.104277
-0.0680887
-0.072367
-0.0739338
-0.0743012
-0.0745195
-0.0606059
-0.0299095
-0.0329963
-0.0562854
-0.071802
-0.0739357
-0.0755109
-0.072367
-0.074748
-0.0577093
-0.0274701
-0.0302652
-0.010757
-0.00981821
-0.0124176
-0.00546999
-0.000660589
-0.00185204
-0.000919727
-0.000911865
-0.00280248
-0.00277897
-0.00120127
-0.000927108
-0.000404112
-0.00188468
-0.000691989
-6.22207e-05
-0.00019036
-1.50792e-05
-1.00161e-06
-5.74574e-08
-5.47631e-08
-7.36217e-08
-1.13964e-07
-6.585e-08
-1.94801e-08
-6.84844e-09
-1.84655e-08
-8.59312e-08
-1.33797e-07
-3.4884e-07
-3.6844e-07
-8.88532e-08
-1.31103e-07
-1.56481e-06
-2.30693e-06
-5.81181e-06
-6.09671e-06
-2.28084e-06
-2.38952e-05
-3.4312e-05
-8.25248e-05
-8.58765e-05
-3.41099e-05
-0.000302606
-0.000418808
-0.000936557
-0.00096724
-0.000417818
-0.00209442
-0.00574368
-0.0302025
-0.029048
-0.0469195
-0.0122729
-0.0231261
-0.0147461
-0.00502605
-0.00575635
-0.000698306
-6.33294e-05
-4.70505e-06
-2.99782e-07
-1.67974e-08
-1.09762e-08
-6.21554e-08
-2.55838e-08
-1.83996e-08
-6.65197e-09
-1.83679e-08
-8.22184e-08
-1.27983e-07
-3.46292e-07
-3.46176e-07
-8.22517e-08
-1.72381e-07
-8.89197e-09
-4.44323e-10
-1.21865e-10
-1.41791e-10
-2.1976e-11
-8.35979e-11
-1.80538e-11
-1.05275e-10
-2.87162e-10
-3.57684e-10
-8.99705e-10
-8.9589e-10
-2.02019e-10
-1.93071e-10
-9.74631e-11
2.78191e-11
-1.07188e-11
-4.03759e-12
-3.40503e-11
-3.51305e-11
-5.14578e-11
1.86981e-11
-3.24838e-11
-1.27619e-10
-3.85106e-10
-9.18828e-10
-9.40892e-10
-2.38267e-10
-6.46096e-11
-9.33261e-11
-1.02707e-10
-3.11363e-10
-2.10112e-10
-1.5725e-10
-2.61424e-10
-6.34395e-10
-1.01338e-09
-3.73453e-09
-5.98367e-09
-1.71047e-08
-2.44149e-08
-7.71783e-08
-8.38285e-08
-1.31159e-07
-3.68371e-07
-3.4879e-07
-1.33789e-07
-8.88264e-08
-1.95953e-08
-1.85588e-08
-6.95642e-09
-4.53298e-09
-6.73481e-09
-1.76286e-08
-4.19947e-09
-3.81694e-09
-7.48859e-10
-1.11238e-09
-7.98174e-10
-2.51981e-10
-1.34304e-10
-1.07036e-10
-1.81741e-10
-6.91638e-10
-1.23692e-10
-1.7272e-10
-7.78857e-12
2.57775e-11
-2.01638e-11
-1.86422e-12
4.6589e-11
-1.285e-12
-5.22791e-11
2.63791e-11
4.98052e-11
-2.27217e-11
7.70726e-11
-2.76215e-11
-5.19613e-11
-1.03064e-10
-2.05841e-11
-4.59406e-11
-1.53542e-10
-3.5025e-09
-7.66212e-10
-1.56467e-08
-6.51863e-08
-1.09996e-06
-2.82632e-07
-4.46939e-06
-1.60403e-05
-1.60381e-05
-1.0997e-06
-3.62614e-07
-0.000190742
-0.000190767
-5.9761e-05
-0.000642578
-0.00170931
-0.00170917
-0.00983375
-0.0098343
-0.00503973
-0.0233601
-0.033991
-0.0134676
-0.00829798
-0.00374863
-0.00780658
-0.00974367
-0.0158919
-0.0231259
-0.0300025
-0.0316661
-0.00436832
-0.000494215
-4.15304e-05
-2.78061e-06
-1.56855e-07
-7.75781e-09
-4.06808e-09
-3.44692e-09
-5.54334e-09
-1.59176e-08
-2.2687e-08
-7.62237e-08
-1.18766e-07
-3.32199e-07
-4.6797e-07
-1.40337e-06
-1.50106e-06
-2.2809e-06
-6.09683e-06
-5.81177e-06
-2.30698e-06
-1.56483e-06
-1.5203e-06
-4.80389e-07
-1.45878e-06
-2.22005e-06
-5.77629e-06
-5.77635e-06
-1.45883e-06
-4.80342e-07
-1.52028e-06
-1.04613e-06
-2.97878e-07
-1.71014e-08
-9.62272e-10
-1.00311e-11
-1.70125e-10
-2.18916e-11
-3.85607e-11
-6.89649e-11
-3.72268e-11
-9.03289e-11
3.13884e-11
-9.11359e-11
-1.64807e-11
4.68509e-11
-7.40161e-11
6.68074e-11
3.80472e-11
3.54757e-12
-3.03086e-11
-5.53971e-11
-2.85342e-11
3.3163e-11
3.27383e-11
-5.24452e-11
-1.14535e-11
1.08173e-11
1.58693e-11
-2.26375e-11
-4.89515e-11
-9.35985e-11
-5.30796e-11
-1.16367e-11
-3.81723e-11
-7.62317e-11
-2.19452e-11
-7.34101e-11
-5.82849e-10
-3.69238e-10
-2.84223e-09
-7.46311e-10
-2.7717e-09
-3.5696e-09
-1.38553e-08
-9.42343e-09
-5.70775e-08
-1.64474e-08
-7.34916e-08
-1.13951e-07
-3.13792e-07
-4.43612e-07
-1.3587e-06
-1.39651e-06
-2.12089e-06
-5.65245e-06
-7.8293e-06
-2.20265e-05
-2.32589e-05
-5.71951e-06
-1.5081e-05
-1.46371e-05
-5.43309e-06
-7.56244e-06
-5.48404e-06
-2.85752e-06
-1.64737e-07
-8.3465e-09
-3.52855e-10
-1.59753e-09
-3.49779e-08
-6.68016e-07
-6.54591e-07
-1.09054e-05
-1.10034e-05
-1.10031e-05
-0.000149086
-0.000107763
-0.000282584
-0.000398265
-0.00154963
-0.00118881
-0.00280812
-0.0037484
-0.00160433
-0.000154424
-1.15646e-05
-7.17991e-07
-3.85213e-08
-1.82681e-09
-1.27399e-09
-4.34629e-09
-4.20737e-09
-4.21876e-09
-4.39483e-09
-1.27866e-09
-1.85187e-09
-3.85485e-08
-2.55447e-08
-8.59269e-08
-6.20975e-08
-3.39653e-09
-8.5735e-10
-1.68706e-08
-2.99738e-07
-1.04618e-06
-1.1331e-06
-6.58813e-08
-5.75802e-08
-5.48275e-08
-7.36175e-08
-2.59371e-07
-1.83393e-07
-1.00244e-06
-3.26125e-07
-1.36209e-06
-2.05437e-06
-5.64417e-06
-2.18127e-05
-3.17196e-05
-8.25754e-05
-0.000287861
-0.000398309
-0.000919798
-0.00118886
-0.00280827
-0.00291225
-0.00300653
-0.000958789
-0.000315528
-0.00189785
-0.000191255
-1.51594e-05
-3.0809e-06
-4.21539e-06
-5.81587e-05
-4.41625e-05
-0.000654829
-0.000519614
-0.00553909
-0.00470809
-0.0296551
-0.0234917
-0.0194318
-0.0447208
-0.0512441
-0.0708129
-0.103655
-0.0696645
-0.043812
-0.0416815
-0.0163898
-0.0122734
-0.00754415
-0.00423425
-0.000489682
-4.18346e-05
-4.22696e-05
-0.00049894
-0.00154965
-0.00155098
-0.00014898
-0.000149088
-0.000154426
-4.2426e-05
-2.93707e-06
-1.15647e-05
-7.1798e-07
-7.93551e-06
-2.33719e-05
-2.24966e-05
-3.3291e-05
-8.20491e-05
-8.20487e-05
-2.24965e-05
-7.93549e-06
-2.33713e-05
-1.54326e-05
-1.68953e-05
-3.45087e-06
-1.13305e-06
-2.10591e-07
-0.000211871
-4.85752e-05
-0.000192274
-0.000297971
-0.000287042
-0.000110512
-0.000492656
-0.00424832
-0.030052
-0.0246623
-0.0273559
-0.0294737
-0.0102466
-0.0105829
-0.0329966
-0.029932
-0.0606054
-0.0562854
-0.0718018
-0.0743423
-0.0502397
-0.0828144
-0.0758115
-0.0755122
-0.0751385
-0.0350048
-0.0158029
-0.0123987
-0.00551254
-0.00188785
-0.00120169
-0.0123985
-0.0301316
-0.0354982
-0.0458321
-0.0290826
-0.0413157
-0.0469493
-0.00979332
-0.000673353
-6.16772e-05
-4.62243e-06
-1.54328e-05
-4.70485e-06
-6.33255e-05
-0.000192279
-0.000110513
-0.000211877
-1.68958e-05
-4.57064e-06
-2.86069e-07
-1.56698e-08
-7.08396e-10
-6.23039e-10
-1.47653e-08
-2.71425e-07
-9.64246e-07
-3.18939e-07
-4.36246e-06
-5.95454e-05
-0.000185959
-0.000282611
-0.00185223
-0.00188479
-0.000190386
-6.22235e-05
-0.00069205
-0.000660694
-0.00547031
-0.029049
-0.0124176
-0.00574403
-0.0302028
-0.0147464
-0.0020945
-0.00188791
-0.000698294
-0.000564455
-0.00502623
-4.8583e-05
-1.00175e-06
-3.38652e-07
-2.94874e-09
-3.40784e-09
-9.38566e-11
-3.60296e-10
-1.13226e-08
-2.10528e-07
-3.45188e-06
-0.00160433
-0.000564343
-2.46633e-05
-1.56777e-06
-8.56378e-08
-1.62846e-08
-3.3532e-09
-4.43144e-09
-6.60071e-09
-1.618e-11
7.48237e-11
-3.94834e-12
5.59788e-11
5.07379e-11
-2.01396e-11
6.35868e-12
3.76367e-11
-1.61562e-10
9.57064e-11
6.99661e-11
5.95471e-12
-1.02281e-10
-9.80559e-11
-5.05528e-11
-5.15868e-11
5.55328e-11
-1.46335e-05
-2.16214e-05
-3.17157e-05
-0.00373286
-0.0272468
-0.0294737
-0.0747441
-7.66931e-11
-4.86978e-11
-1.49769e-06
-1.84071e-06
-1.02022e-07
-0.000359335
-2.05398e-06
-3.24605e-05
-5.52721e-09
-1.18664e-07
3.65326e-11
-4.94938e-11
5.39873e-11
-0.0532689
-0.0824116
-0.0746923
-0.0753109
-0.0746916
-0.0400822
-0.0458332
-1.86004e-11
4.15295e-11
8.93367e-10
2.93126e-10
2.55297e-10
2.70994e-10
9.15005e-10
9.29315e-10
2.74879e-10
1.96723e-10
1.01999e-10
4.83047e-11
-6.86408e-12
-3.72705e-11
-1.24439e-11
2.03184e-11
6.16296e-11
6.15336e-11
4.32771e-11
7.67319e-11
2.96907e-11
1.97289e-12
2.32291e-11
1.8739e-11
6.79936e-11
5.72889e-11
7.7991e-12
5.54021e-11
-5.11638e-11
-5.01414e-11
6.97858e-11
-9.11715e-12
-3.32501e-11
-7.80784e-11
-9.07059e-11
-8.30687e-11
-1.86301e-11
-9.16275e-11
2.39653e-11
-3.10576e-11
-3.35038e-11
-6.11798e-11
1.83273e-11
8.06172e-11
2.74912e-11
7.44219e-11
1.0702e-10
6.36545e-11
-1.41666e-11
-1.11073e-12
3.90315e-11
3.02686e-11
2.58722e-11
8.74259e-11
1.19684e-11
-3.45373e-11
9.84852e-11
7.66378e-11
4.44944e-11
-3.99892e-11
5.1765e-11
3.76733e-12
-4.95758e-11
-1.21187e-11
8.21412e-12
-1.58149e-12
4.06927e-11
7.39784e-11
2.09601e-10
1.87507e-10
3.59837e-10
9.89929e-10
1.23388e-09
4.29474e-09
6.89544e-09
4.45259e-09
4.16231e-09
6.67243e-09
1.75805e-08
1.70933e-08
3.70248e-09
1.04485e-09
7.1637e-10
7.33102e-10
4.7115e-10
8.78458e-09
1.69964e-07
2.88512e-06
4.16166e-05
0.000485893
0.00434121
0.0350047
0.0538541
0.0395516
0.0692303
0.0442757
0.0680884
0.104277
0.067657
0.069664
0.103657
0.0708126
0.051244
0.0828142
0.0697004
0.0502385
0.0299097
0.0329964
0.0388864
0.0883552
0.0857264
0.0693012
0.0995824
0.0692986
0.0857267
0.0883546
0.0697009
0.0502387
0.0512443
0.0828142
0.0708127
0.103655
0.0696641
0.0676574
0.0401607
0.0398744
0.0395516
0.0442759
0.0680886
0.0692303
0.10329
0.070165
0.0824119
0.0700958
0.103271
0.0691713
0.0676663
0.0442803
0.0398958
0.0398959
0.0676664
0.0691716
0.10327
0.0700983
0.0824115
0.0532689
0.0701627
0.103292
0.0459724
0.0436532
0.0475619
0.0400814
0.043678
0.0458325
0.0407335
0.0413152
0.046949
0.0413154
0.0230187
0.0158027
0.0158027
0.0418011
0.040733
0.0458316
0.043678
0.0400827
0.0436539
0.0459713
0.0407659
0.0413206
0.0469176
0.0412805
0.0403295
0.0452013
0.0427487
0.0390919
0.041517
0.0447198
0.0194314
0.0082977
0.00291219
0.000958775
0.00028785
8.25733e-05
2.18118e-05
5.644e-06
1.36213e-06
3.26104e-07
7.34134e-08
1.6499e-08
3.53296e-09
7.67596e-10
2.12226e-10
1.45615e-10
1.67042e-10
1.26391e-10
2.28757e-10
2.24072e-10
3.10521e-10
2.35341e-10
1.04978e-10
8.71231e-11
6.47699e-11
1.2103e-11
1.57913e-11
4.32858e-10
8.79975e-09
1.69938e-07
2.88521e-06
4.1618e-05
0.000485899
0.00434123
0.0350048
0.0538545
0.0274702
0.0278015
0.0302652
0.0276891
0.0276889
0.0278014
0.02747
0.0302651
0.0276378
0.0398738
0.0401609
0.0438118
0.0393343
0.0528969
0.0270608
0.0272469
0.0522256
0.0300024
0.031666
0.0256769
0.031666
0.0528968
0.0299095
0.0299316
0.0329963
0.0340107
0.0340108
0.0299316
0.0506171
0.0271165
0.0273558
0.0273557
0.0294737
0.0271162
0.0562851
0.07452
0.0743006
0.0758107
0.0743434
0.0771485
0.0806005
0.0665355
0.0265937
0.017882
0.0382174
0.0432721
0.0424124
0.0464113
0.0293137
0.0182077
0.00731275
0.00731266
0.00287819
0.00289609
0.00101047
0.000942838
0.000285894
9.00992e-05
7.94129e-05
2.13997e-05
6.28386e-06
5.32507e-06
1.31933e-06
3.67524e-07
3.02497e-07
7.0402e-08
1.87565e-08
1.51025e-08
3.41828e-09
9.5413e-10
7.59428e-10
5.22801e-11
-7.31099e-12
2.25278e-11
-4.81436e-12
5.48466e-11
-2.57424e-12
2.7418e-11
4.11314e-11
7.57374e-12
1.28192e-10
-6.06939e-11
7.09132e-11
5.46803e-11
-8.6143e-11
-1.83563e-11
-8.76894e-12
-1.39379e-10
-1.45735e-10
3.09376e-11
-7.92937e-11
-5.27181e-11
-8.3797e-11
-2.02787e-11
-5.46247e-11
3.43472e-11
0
-4.3877e-11
-3.13874e-11
9.13523e-12
1.40485e-12
1.13092e-11
9.97316e-11
-4.15865e-11
-6.32401e-12
-8.90628e-11
2.18499e-11
3.59144e-11
-3.74915e-11
-1.88625e-11
2.50561e-11
1.25582e-11
-3.55582e-11
-1.97837e-11
1.51195e-10
-5.72396e-11
2.95994e-11
1.64981e-11
1.81893e-11
6.11734e-12
3.24715e-10
7.76618e-09
1.56846e-07
2.78059e-06
4.15294e-05
0.000494207
0.00436827
0.00374854
0.00780647
0.0075439
0.00765171
0.00787576
0.00293119
0.000934033
0.000298029
8.18961e-05
2.32578e-05
5.71933e-06
1.50097e-06
3.38612e-07
8.37955e-08
1.7522e-08
4.0783e-09
8.11584e-10
2.16e-10
9.21556e-10
8.2365e-10
9.19448e-10
4.19914e-09
6.5034e-09
4.19272e-09
1.83489e-08
1.85203e-08
1.95461e-08
8.8842e-08
8.59468e-08
1.33857e-07
3.68488e-07
1.31161e-07
8.37745e-08
2.44074e-08
7.71409e-08
7.62259e-08
1.1872e-07
3.18885e-07
3.13742e-07
7.35828e-08
2.26524e-08
1.62212e-08
5.85212e-09
3.66335e-09
6.66412e-10
3.03142e-10
1.83117e-10
4.81245e-11
6.62036e-11
5.50777e-11
-4.27961e-12
-3.00212e-11
1.11554e-10
7.99335e-11
5.42563e-11
6.32856e-11
4.85143e-11
-6.14743e-11
1.63206e-11
9.3798e-12
-1.1284e-12
2.52313e-11
1.59856e-11
3.91917e-11
1.37566e-10
-1.50552e-11
4.31871e-11
8.7717e-11
2.3177e-11
-1.36306e-10
-6.5308e-11
-5.86054e-11
4.83219e-10
8.90746e-09
1.72405e-07
2.93701e-06
4.24253e-05
0.000492649
0.00424828
0.0300521
0.0522131
0.0736636
0.0730683
0.0747464
0.0723668
0.0755136
0.104277
0.0718016
0.0393352
0.0270609
0.0272466
0.0294737
0.0102466
0.00974352
0.0158917
0.0157916
0.0169549
0.019687
0.0232838
0.0169233
0.00787815
0.00385287
0.00292251
0.00294244
0.00803897
0.00385135
0.00574358
0.0302024
0.0290483
0.0296543
0.03399
0.0233592
0.00503934
0.00470841
0.0134671
0.00553934
0.000654714
0.000519561
0.000642644
5.97639e-05
4.41582e-05
0.000191252
0.00189776
0.00185209
0.00280821
0.00280243
0.000911877
0.0009271
0.00120126
0.00277895
0.00373289
0.00423422
0.0300025
0.0522256
0.0276379
0.0577093
0.0739357
0.0562852
0.0606061
0.0388861
0.0487218
0.0408406
0.0319554
0.0377411
0.0168972
0.00391058
0.000534704
5.15804e-05
3.89549e-06
2.46946e-07
1.39641e-08
7.23936e-10
6.21465e-11
6.09857e-12
6.28928e-11
2.21762e-12
6.9311e-12
8.33835e-10
1.56584e-08
2.82599e-07
4.46962e-06
3.0807e-06
1.51592e-05
5.81491e-05
4.21491e-06
2.59288e-07
1.83208e-07
1.00245e-06
9.64176e-07
1.3586e-06
1.39635e-06
3.18916e-07
3.32164e-07
4.67906e-07
1.40331e-06
5.65216e-06
7.82904e-06
2.20249e-05
8.13286e-05
0.000109932
0.000284216
0.000404112
0.000285781
7.9572e-05
0.000107769
0.000282594
0.000919746
0.00118883
0.00154963
0.000489673
4.18336e-05
3.24612e-05
2.20425e-05
5.48359e-06
7.56188e-06
2.16227e-05
7.94185e-05
3.17181e-05
0.000185933
0.000660614
0.00546978
0.0122727
0.0163895
0.0416809
0.043812
0.0234914
0.0124172
0.0418384
0.0147458
0.035497
0.0301312
0.00575625
0.00502672
0.00209427
0.00188461
0.00069197
6.22172e-05
5.95373e-05
4.36184e-06
2.71383e-07
1.4619e-08
1.3826e-08
9.46959e-09
5.70514e-08
5.47021e-08
7.35373e-08
7.61691e-08
1.6208e-08
1.70571e-08
2.4409e-08
7.71689e-08
1.18769e-07
1.64733e-07
2.85747e-06
2.12072e-06
6.68009e-07
4.43639e-07
3.13773e-07
1.13923e-07
6.54604e-07
1.31943e-06
1.56773e-06
5.3255e-06
6.2845e-06
2.14021e-05
2.46628e-05
7.94199e-05
9.0108e-05
0.000285919
0.000315525
0.000942888
0.00101054
0.0028962
0.00300648
0.00827883
0.00873398
0.0200418
0.0219166
0.00792296
0.0105827
0.0105827
0.0200418
0.00873389
0.00827873
0.00792286
0.0182078
0.017882
0.0293138
0.0196787
0.0464115
0.0424122
0.0432727
0.0415171
0.0382174
0.0408404
0.0487233
0.0606059
0.0771496
0.0743022
0.0743426
0.0758084
0.071801
0.0739337
0.0751386
0.0502763
0.0246623
0.0042492
0.00423136
0.00423703
0.00287825
0.00273343
0.000916296
0.000273245
7.93814e-05
7.93754e-05
2.36713e-05
2.06252e-05
6.22739e-06
5.41032e-06
1.49793e-06
1.27745e-06
3.62725e-07
3.11499e-07
8.1545e-08
6.86429e-08
1.85381e-08
1.58859e-08
3.97196e-09
3.27715e-09
9.13661e-10
7.35372e-10
1.53066e-10
8.30614e-11
2.63338e-11
5.09572e-11
5.57099e-12
5.70178e-13
1.49685e-11
1.84895e-11
9.3064e-11
1.93137e-10
1.81795e-10
7.20578e-10
8.5988e-10
3.43238e-09
4.21764e-09
1.52149e-08
1.87658e-08
7.04764e-08
8.5556e-08
3.02508e-07
3.67594e-07
3.62694e-07
3.11484e-07
1.02069e-07
6.86232e-08
1.5978e-08
3.32599e-09
7.73947e-10
2.42925e-10
1.91441e-10
4.23685e-11
6.67385e-11
1.57859e-09
8.18542e-10
3.51237e-09
6.517e-08
1.10008e-06
1.6042e-05
0.000190768
0.00170923
0.00983365
0.00983352
0.0319559
0.0233591
0.00503921
0.00170914
0.00273343
0.00100272
0.000916261
0.00030343
0.000273238
8.95428e-05
0.000148976
0.000490593
0.000303445
0.000359333
4.09295e-05
2.36728e-05
2.06258e-05
5.41058e-06
1.27749e-06
1.49784e-06
2.70279e-06
1.84099e-06
1.50309e-07
8.15471e-08
7.37092e-09
4.01765e-09
5.13067e-09
3.24358e-10
2.02933e-10
1.22952e-11
2.30695e-11
-5.40359e-11
-2.38183e-11
-8.3085e-11
-1.28041e-10
-2.49648e-11
-6.01428e-11
2.66498e-11
-5.42157e-12
4.11505e-11
-2.44417e-11
-4.04543e-11
-2.41133e-11
-5.72423e-11
4.1865e-11
1.77535e-11
-1.28299e-10
-9.64222e-11
3.66746e-11
-5.93888e-12
-2.86605e-12
-1.48577e-10
-1.1887e-10
-1.14618e-10
8.6275e-12
-1.46905e-10
-1.31925e-10
-7.48e-11
-8.43624e-11
5.23752e-11
-8.7674e-11
-4.71725e-11
-5.35355e-11
-4.894e-12
7.47206e-11
7.11423e-11
2.21924e-11
5.68742e-12
3.28441e-11
3.26918e-11
3.43108e-11
-1.66282e-11
-3.41809e-11
-6.36825e-12
-4.68208e-11
-2.20338e-11
-1.26811e-11
2.09084e-11
2.82884e-12
-6.35795e-12
3.02059e-11
6.14634e-11
-2.70225e-11
-6.33529e-12
-3.73782e-11
6.92442e-11
5.57659e-11
2.91825e-10
7.14359e-09
1.4673e-07
2.65424e-06
4.03994e-05
0.00048765
0.00155096
0.00100277
0.00155095
0.00436825
0.00300641
0.00829747
0.00374839
0.00280811
0.0011888
0.000911842
0.000404094
0.0002842
0.000109925
8.13236e-05
8.18916e-05
3.41076e-05
2.38932e-05
2.33701e-05
3.43094e-05
8.58698e-05
0.000302587
0.000297954
0.000418779
0.000967182
0.000417789
0.000298018
0.000934016
0.00092706
0.00277891
0.00120125
0.00293112
0.00385137
0.00294237
0.00292244
0.0038528
0.00803896
0.00787575
0.00765158
0.00373282
0.00280239
0.00754381
0.00780629
0.0163894
0.00974346
0.0158916
0.0231258
0.0157916
0.00981813
0.0169547
0.0232387
0.0196869
0.0169233
0.0232834
0.0301313
0.0290816
0.0123982
0.00979319
0.00760818
0.00374365
0.00278881
0.00278885
0.00120164
0.000936525
0.000418786
0.000297963
0.000302597
0.000967204
0.000417806
8.58756e-05
3.43116e-05
2.33709e-05
2.38949e-05
3.41104e-05
6.09671e-06
2.30693e-06
1.52025e-06
1.56471e-06
2.2808e-06
4.57025e-06
2.86036e-07
1.54858e-08
7.48708e-10
7.48671e-10
7.04094e-10
5.09449e-10
2.89567e-09
2.80163e-09
3.54068e-09
3.70707e-09
7.51877e-10
8.43707e-10
1.16346e-09
3.73219e-09
5.88257e-09
8.3377e-09
3.57015e-10
2.34547e-10
4.61525e-11
-4.97027e-12
6.53208e-11
-1.20193e-11
-1.16888e-11
-1.0631e-10
1.24298e-10
1.50866e-10
9.9858e-11
8.65029e-12
4.05825e-11
1.43233e-10
2.92325e-09
5.74308e-08
1.00169e-06
1.50793e-05
0.00019036
0.000211865
0.000564431
0.000698251
6.33184e-05
4.85822e-05
1.68951e-05
1.54312e-05
0.000192261
8.25214e-05
8.20443e-05
3.32896e-05
2.24955e-05
2.24958e-05
7.93529e-06
5.77607e-06
2.21994e-06
1.45872e-06
1.45873e-06
4.80324e-07
3.48736e-07
1.33832e-07
8.60074e-08
8.88963e-08
3.68466e-07
1.3117e-07
1.13307e-06
3.4518e-06
4.70475e-06
2.99752e-07
2.1052e-07
6.58738e-08
6.21384e-08
1.85157e-08
6.90437e-09
4.31696e-09
4.39068e-09
1.94832e-08
6.61181e-09
3.33637e-09
1.10866e-08
1.67959e-08
8.01487e-10
5.51741e-10
1.72398e-10
9.57053e-11
8.00149e-11
9.43874e-11
4.23124e-11
-2.07342e-11
3.01401e-11
6.48663e-11
-1.07466e-10
-6.82139e-11
5.93314e-11
7.24881e-12
-1.30305e-11
6.66632e-11
9.06194e-10
3.36017e-09
1.32185e-09
1.87662e-09
1.63133e-09
1.06527e-09
7.4289e-10
2.09299e-10
3.49635e-08
2.26347e-08
1.58907e-08
5.63415e-09
3.38678e-08
1.84827e-08
3.38405e-08
6.54585e-07
1.09052e-05
4.15281e-05
0.000494197
0.000315499
0.000958684
0.000398255
0.000282575
0.000107761
7.95659e-05
3.24587e-05
2.20233e-05
7.82842e-06
5.65164e-06
5.71874e-06
2.28058e-06
1.56468e-06
1.52025e-06
2.30677e-06
6.09627e-06
5.81136e-06
7.93506e-06
5.77602e-06
1.54309e-05
6.16697e-05
0.000673306
0.00551231
0.00188772
0.00188773
0.0123979
0.00979317
0.00787799
0.00760823
0.010757
0.0102466
0.00154963
0.00423421
0.000489669
0.000498939
0.000149087
0.000148979
8.95477e-05
1.09055e-05
6.22786e-06
1.10033e-05
4.22696e-05
2.85449e-06
1.62514e-07
8.13514e-09
3.82601e-10
-2.80698e-11
2.94923e-11
3.57138e-11
3.45763e-10
7.7459e-09
1.56809e-07
2.78047e-06
1.56757e-06
5.64323e-06
2.05403e-06
1.35838e-06
4.43545e-07
1.39621e-06
2.12052e-06
1.4032e-06
4.6796e-07
3.32112e-07
3.38568e-07
1.50096e-06
1.00145e-06
9.63865e-07
1.00214e-06
4.46894e-06
5.9755e-05
0.000642511
0.000190745
1.60394e-05
1.09995e-06
6.51439e-08
2.82577e-07
1.56162e-08
3.5228e-09
1.59847e-10
7.78326e-10
3.83241e-11
-5.75631e-11
1.00567e-10
1.37967e-10
2.34395e-10
1.40963e-10
5.77412e-11
3.45227e-11
-4.58443e-11
-6.59084e-12
3.88125e-10
8.30371e-09
1.647e-07
2.85738e-06
4.18327e-05
0.000149085
1.10031e-05
7.56128e-06
5.43201e-06
5.48302e-06
2.20407e-05
2.16209e-05
2.18096e-05
3.17141e-05
8.25634e-05
2.46605e-05
0.000287826
0.000191212
0.00189752
0.00291205
0.0134669
0.0194312
0.0234914
0.0427499
0.0390915
0.0447195
0.0339872
0.0296531
0.0452012
0.0403301
0.0416808
0.0412802
0.0469197
0.0413217
0.0418383
0.0407661
0.0302019
0.0290478
0.0122729
0.00553855
0.00470804
0.00065464
0.000519474
5.81375e-05
4.41459e-05
1.51551e-05
1.46318e-05
0.000185909
7.94121e-05
0.000285768
0.00185195
0.000919708
0.00546962