/*--------------------------------*- C++ -*----------------------------------*\
| =========                 |                                                 |
| \\      /  F ield         | OpenFOAM: The Open Source CFD Toolbox           |
|  \\    /   O peration     | Version:  2306                                  |
|   \\  /    A nd           | Website:  www.openfoam.com                      |
|    \\/     M anipulation  |                                                 |
\*---------------------------------------------------------------------------*/
FoamFile
{
    version     2.0;
    format      ascii;
    arch        "LSB;label=32;scalar=64";
    class       volVectorField;
    location    "1.6";
    object      flux;
}
// * * * * * * * * * * * * * * * * * * * * * * * * * * * * * * * * * * * * * //

dimensions      [0 1 -1 1 0 0 0];

internalField   nonuniform List<vector> 
2658
(
(9.98159e-07 9.777e-07 -8.58009e-06)
(1.46224e-06 5.67737e-07 -8.24917e-06)
(4.73611e-07 1.76315e-07 -5.8985e-06)
(-2.93125e-08 -1.76987e-08 -5.34718e-06)
(-1.96704e-06 -1.93447e-06 -6.71445e-06)
(-1.66156e-06 2.37158e-06 -6.87125e-06)
(1.68572e-06 -1.96706e-06 -6.06069e-06)
(1.66552e-06 1.65762e-06 -5.85284e-06)
(-2.85434e-08 -2.13914e-08 -5.34266e-06)
(2.35446e-06 -1.68236e-06 -6.85098e-06)
(-1.62062e-06 5.15456e-07 -6.9706e-06)
(-1.19422e-06 -3.97777e-06 -5.62455e-06)
(8.09928e-07 2.44492e-06 -7.59975e-06)
(9.57281e-07 2.48551e-06 -7.13362e-06)
(7.30048e-07 2.0172e-06 -7.3447e-06)
(-6.08072e-08 2.06941e-06 -7.54942e-06)
(-3.27799e-08 2.26413e-06 -7.29181e-06)
(-1.45858e-08 2.03767e-06 -7.53232e-06)
(-8.01475e-07 2.06461e-06 -7.33532e-06)
(-1.04152e-06 2.45452e-06 -7.03908e-06)
(-9.96216e-07 2.36758e-06 -7.47327e-06)
(-2.31472e-06 2.06933e-06 -6.7319e-06)
(-2.7567e-06 6.86773e-07 -7.68328e-06)
(2.05955e-06 -4.56818e-07 -5.81335e-06)
(-8.65439e-07 7.53914e-07 -9.13047e-06)
(-1.09439e-06 2.2618e-06 -7.46144e-06)
(-2.3547e-06 -4.9005e-07 -6.68881e-06)
(-3.33216e-07 1.37214e-07 -7.84096e-06)
(-1.72408e-06 1.84492e-06 -8.03042e-06)
(-1.86158e-06 -9.34637e-11 -6.64053e-06)
(-1.72405e-06 -1.84495e-06 -8.03035e-06)
(-2.35475e-06 4.9006e-07 -6.68881e-06)
(-1.09445e-06 -2.26192e-06 -7.46137e-06)
(-2.75686e-06 -6.86759e-07 -7.6832e-06)
(-8.65389e-07 -7.53888e-07 -9.13047e-06)
(2.05952e-06 4.56875e-07 -5.81326e-06)
(-1.08055e-06 -1.19329e-07 -7.39245e-06)
(5.18369e-07 1.94563e-07 -1.0496e-05)
(-2.31434e-06 -2.06996e-06 -6.73182e-06)
(-9.96495e-07 -2.36772e-06 -7.47346e-06)
(-1.0415e-06 -2.4547e-06 -7.03917e-06)
(-8.01428e-07 -2.06469e-06 -7.33533e-06)
(-1.47388e-08 -2.03752e-06 -7.53225e-06)
(7.13809e-08 1.01237e-06 -1.08084e-05)
(-1.34159e-06 -1.37383e-07 -6.75031e-06)
(1.25296e-06 -5.90936e-08 -6.67551e-06)
(-1.62058e-06 -5.15487e-07 -6.97064e-06)
(-6.28957e-08 1.05404e-06 -1.08006e-05)
(-6.10386e-08 -2.06978e-06 -7.54953e-06)
(7.30069e-07 -2.01723e-06 -7.34476e-06)
(9.57331e-07 -2.48534e-06 -7.13355e-06)
(8.09907e-07 -2.44493e-06 -7.59982e-06)
(2.19444e-06 -2.17456e-06 -6.80544e-06)
(-4.62993e-07 4.47662e-07 -1.08855e-05)
(2.45812e-06 -8.11594e-07 -7.60648e-06)
(2.02503e-06 -7.54853e-07 -7.35475e-06)
(-1.07111e-06 5.35414e-08 -1.08011e-05)
(8.04009e-08 -1.27192e-06 -6.70637e-06)
(-3.76582e-06 -1.38559e-11 -5.86488e-06)
(2.0441e-06 -1.58527e-08 -7.54016e-06)
(-1.07105e-06 -5.35119e-08 -1.08012e-05)
(2.02508e-06 7.54818e-07 -7.35484e-06)
(2.45811e-06 8.11645e-07 -7.60655e-06)
(-4.62919e-07 -4.47721e-07 -1.08855e-05)
(4.90505e-07 4.97381e-07 -6.92355e-06)
(-3.98596e-06 -1.15815e-06 -5.63579e-06)
(4.82571e-07 -1.60798e-06 -6.95238e-06)
(-5.00531e-08 -7.52168e-08 -6.19302e-06)
(-1.2457e-06 -2.62709e-06 -6.79467e-06)
(-1.24585e-06 2.6271e-06 -6.79452e-06)
(-4.39481e-08 2.42828e-11 -5.42493e-06)
(1.21048e-06 2.16813e-06 -5.94176e-06)
(-9.13613e-08 -2.59987e-08 -4.53408e-06)
(-1.27608e-06 1.73719e-06 -5.1315e-06)
(3.55145e-08 -1.97107e-09 -3.87847e-06)
(-1.34572e-06 -1.31837e-06 -5.07735e-06)
(1.7206e-06 -1.30512e-06 -5.11679e-06)
(-8.4346e-09 4.40436e-08 -3.87312e-06)
(-1.43543e-06 1.22409e-06 -4.34186e-06)
(1.60058e-06 8.02318e-07 -4.25518e-06)
(-1.97936e-06 -8.74844e-07 -5.117e-06)
(-4.18131e-08 -7.54741e-08 -4.532e-06)
(2.17509e-06 1.15548e-06 -5.91118e-06)
(-1.9762e-06 1.73979e-06 -6.08012e-06)
(-4.86779e-08 -3.48304e-08 -5.03457e-06)
(-2.7877e-08 -1.85067e-08 -3.63494e-06)
(-2.48055e-09 3.23097e-09 -2.50943e-06)
(6.62536e-09 1.02332e-08 -1.64514e-06)
(7.94125e-09 1.05808e-08 -1.02434e-06)
(6.62338e-09 8.96325e-09 -6.09012e-07)
(4.48304e-09 6.40924e-09 -3.54335e-07)
(-7.43267e-09 -1.3551e-08 -2.85792e-07)
(6.62559e-09 6.96969e-09 -2.30678e-07)
(-4.77226e-08 3.63572e-08 -1.92807e-07)
(3.14654e-08 -1.52282e-08 -2.026e-07)
(-6.09607e-09 -4.02951e-08 -2.24674e-07)
(-3.89685e-08 -6.01226e-09 -1.98738e-07)
(1.7588e-10 -3.94494e-08 -2.98395e-07)
(3.91062e-08 -6.58954e-09 -1.98841e-07)
(-3.20538e-08 -1.44449e-08 -2.01462e-07)
(1.71805e-08 -4.31039e-08 -2.99906e-07)
(4.41819e-08 -1.11349e-08 -2.04011e-07)
(4.01646e-08 -3.99269e-08 -2.2522e-07)
(3.09575e-08 -1.99921e-08 -2.44946e-07)
(3.22875e-08 -1.69204e-08 -2.07524e-07)
(-6.74195e-08 3.9346e-08 -2.3036e-07)
(-1.24343e-08 -1.39873e-08 -1.6631e-07)
(-8.88331e-09 -9.3302e-10 -2.93752e-07)
(-3.82087e-09 5.52553e-09 -1.79463e-07)
(1.81442e-08 -4.06121e-08 -2.65209e-07)
(3.89326e-08 1.34985e-08 -2.45427e-07)
(1.526e-08 -1.82181e-08 -2.01015e-07)
(3.07581e-08 -5.84752e-13 -2.74481e-07)
(1.52575e-08 1.82183e-08 -2.01008e-07)
(3.89328e-08 -1.35013e-08 -2.45429e-07)
(1.81434e-08 4.06113e-08 -2.65211e-07)
(3.22906e-08 1.69212e-08 -2.07531e-07)
(-6.74194e-08 -3.9348e-08 -2.30361e-07)
(4.01687e-08 3.99252e-08 -2.25221e-07)
(3.09621e-08 1.99911e-08 -2.44948e-07)
(4.41808e-08 1.11292e-08 -2.04004e-07)
(1.7176e-08 4.31033e-08 -2.99889e-07)
(-3.2056e-08 1.44442e-08 -2.0146e-07)
(3.91069e-08 6.58871e-09 -1.98839e-07)
(-6.35344e-08 -3.11054e-08 -2.01159e-07)
(6.34977e-08 -3.00725e-08 -2.02115e-07)
(-4.77223e-08 -3.63596e-08 -1.92801e-07)
(-6.09617e-09 4.02992e-08 -2.24683e-07)
(-3.89686e-08 6.01525e-09 -1.98738e-07)
(3.14632e-08 1.52311e-08 -2.02606e-07)
(-1.75901e-08 4.23545e-08 -2.99473e-07)
(-4.32412e-08 1.04029e-08 -2.0204e-07)
(-2.90688e-08 2.01221e-08 -2.41997e-07)
(-2.63988e-08 1.87348e-08 -2.00659e-07)
(-1.72132e-08 3.79797e-08 -2.62748e-07)
(1.77096e-09 -1.75288e-08 -1.89184e-07)
(-8.31181e-09 1.63988e-09 -1.84412e-07)
(-5.06804e-08 2.37566e-09 -2.2365e-07)
(3.91751e-08 -4.11349e-08 -1.91129e-07)
(3.91548e-08 4.11451e-08 -1.91135e-07)
(-8.30928e-09 -1.64311e-09 -1.84405e-07)
(1.76142e-09 1.75309e-08 -1.89184e-07)
(1.7473e-08 -1.01853e-08 -2.07206e-07)
(-1.88371e-08 -1.05687e-08 -2.17961e-07)
(-2.16391e-08 -9.70089e-11 -2.73486e-07)
(-1.87932e-08 1.05349e-08 -2.1786e-07)
(9.86953e-09 1.93397e-11 -2.56562e-07)
(1.24067e-08 2.29451e-11 -2.52292e-07)
(-3.81014e-08 -2.11836e-08 -1.76399e-07)
(-3.9641e-08 2.08775e-08 -1.77272e-07)
(-3.30129e-08 4.91206e-11 -1.66698e-07)
(-4.18396e-08 1.69514e-09 -2.37885e-07)
(-4.10285e-08 1.13848e-08 -2.37277e-07)
(-4.23877e-08 -1.28952e-08 -1.48809e-07)
(-3.35772e-08 5.08781e-08 -2.02814e-07)
(-5.89695e-08 1.16256e-08 -1.92745e-07)
(-5.3178e-08 4.78265e-08 -1.74995e-07)
(-2.26129e-08 5.67939e-08 -1.91603e-07)
(-2.6244e-08 6.03766e-08 -1.79069e-07)
(-1.92352e-08 4.74137e-08 -1.88103e-07)
(3.51742e-10 4.77492e-08 -1.93839e-07)
(-1.95188e-11 5.53394e-08 -1.83071e-07)
(-6.44422e-10 4.77684e-08 -1.93951e-07)
(1.82375e-08 4.81374e-08 -1.87903e-07)
(2.59568e-08 6.16498e-08 -1.77927e-07)
(2.28072e-08 5.73096e-08 -1.90444e-07)
(5.38264e-08 4.98828e-08 -1.74277e-07)
(6.81365e-08 1.59204e-08 -2.00126e-07)
(-1.58375e-08 -2.41033e-09 -3.06589e-07)
(5.02435e-08 1.31293e-08 -2.77102e-07)
(-1.3354e-07 -8.64785e-08 -3.98399e-07)
(1.7089e-07 1.2536e-07 -5.40242e-07)
(-2.20837e-07 -1.53682e-07 -7.14036e-07)
(2.94927e-07 2.10992e-07 -9.336e-07)
(-3.74451e-07 -2.69673e-07 -1.21866e-06)
(4.91681e-07 3.46962e-07 -1.56165e-06)
(-6.11605e-07 -4.49225e-07 -1.98624e-06)
(7.81352e-07 5.44836e-07 -2.48579e-06)
(-9.51213e-07 -7.08573e-07 -3.07442e-06)
(1.18311e-06 8.11483e-07 -3.75575e-06)
(-1.40511e-06 -1.06289e-06 -4.51578e-06)
(1.71647e-06 1.1461e-06 -5.37784e-06)
(-1.97231e-06 -1.53022e-06 -6.30222e-06)
(2.4464e-06 1.53751e-06 -7.11583e-06)
(-2.4435e-06 1.50747e-06 -6.88593e-06)
(2.59579e-06 1.26437e-06 -6.75744e-06)
(-2.68307e-06 1.20142e-06 -6.82415e-06)
(2.3544e-06 1.68244e-06 -6.85089e-06)
(-1.96714e-06 1.93441e-06 -6.71437e-06)
(-2.93204e-08 1.76776e-08 -5.3471e-06)
(-1.66146e-06 -2.37164e-06 -6.87132e-06)
(4.82482e-07 1.60799e-06 -6.95228e-06)
(-3.98588e-06 1.15806e-06 -5.6358e-06)
(4.90515e-07 -4.97398e-07 -6.92356e-06)
(-1.19424e-06 3.97771e-06 -5.62457e-06)
(4.81091e-07 -4.92155e-07 -9.14638e-06)
(-4.8685e-08 3.47989e-08 -5.03456e-06)
(-2.78789e-08 1.84867e-08 -3.63493e-06)
(-2.49812e-09 -3.23827e-09 -2.50942e-06)
(6.61039e-09 -1.02497e-08 -1.64513e-06)
(7.94784e-09 -1.0595e-08 -1.02433e-06)
(6.62876e-09 -8.96134e-09 -6.09001e-07)
(4.48458e-09 -6.40867e-09 -3.54329e-07)
(-7.43334e-09 1.35515e-08 -2.85794e-07)
(6.62653e-09 -6.96651e-09 -2.30679e-07)
(5.79683e-10 1.47455e-10 -1.59479e-07)
(-1.73574e-08 -1.6878e-08 -1.73614e-07)
(-1.61805e-09 6.82541e-09 -2.86258e-07)
(2.38401e-08 -2.16263e-08 -1.78369e-07)
(2.38393e-08 2.16254e-08 -1.78369e-07)
(-1.73589e-08 1.68799e-08 -1.73617e-07)
(5.8187e-10 -1.4921e-10 -1.59478e-07)
(-1.61204e-09 -6.82802e-09 -2.8626e-07)
(7.39357e-09 -6.26926e-09 -1.65043e-07)
(6.34985e-08 3.00752e-08 -2.02112e-07)
(-6.35383e-08 3.11043e-08 -2.0116e-07)
(4.48327e-09 -4.07491e-08 -2.2415e-07)
(4.88708e-08 3.53911e-08 -1.94071e-07)
(-4.35553e-09 8.31472e-09 -2.31018e-07)
(1.13078e-09 -6.95778e-10 -1.60481e-07)
(-7.04563e-09 -5.70646e-09 -1.64634e-07)
(-5.86299e-12 5.34186e-09 -2.36004e-07)
(5.75314e-10 -3.94442e-09 -2.86469e-07)
(6.50192e-09 -3.66792e-09 -2.85521e-07)
(4.73333e-09 -1.60246e-13 -2.94132e-07)
(6.50181e-09 3.66648e-09 -2.85519e-07)
(-4.36325e-09 -8.32334e-09 -2.31017e-07)
(-1.24318e-08 1.39862e-08 -1.66307e-07)
(-3.12631e-08 -2.75084e-08 -1.80363e-07)
(-8.88052e-09 9.36021e-10 -2.93753e-07)
(6.87644e-09 -3.02185e-08 -1.91041e-07)
(6.87747e-09 3.0223e-08 -1.91041e-07)
(-3.12648e-08 2.75103e-08 -1.80363e-07)
(-1.21072e-09 5.05278e-13 -2.43353e-07)
(1.96743e-08 -1.91398e-08 -1.75728e-07)
(-2.35122e-08 -2.10685e-08 -1.77328e-07)
(-2.3516e-08 2.10715e-08 -1.77326e-07)
(4.25206e-10 -6.5481e-09 -2.85819e-07)
(1.96783e-08 1.91424e-08 -1.75727e-07)
(-3.90306e-10 -2.88811e-09 -2.24733e-07)
(-4.05049e-09 1.10533e-13 -2.08934e-07)
(-5.34829e-09 -1.4579e-08 -2.04977e-07)
(-4.98611e-09 -6.58461e-09 -1.89825e-07)
(2.23763e-08 1.92738e-08 -2.16361e-07)
(-5.06781e-09 -4.97563e-09 -2.05812e-07)
(-1.51331e-09 1.90901e-12 -2.14579e-07)
(-3.70212e-08 1.37652e-12 -3.03512e-07)
(3.22486e-09 -5.53091e-13 -2.65122e-07)
(-1.6244e-08 -3.1033e-08 -1.93968e-07)
(2.57771e-08 2.12926e-08 -2.66514e-07)
(2.57305e-08 5.73961e-08 -1.91716e-07)
(5.62501e-08 -1.42905e-08 -1.64752e-07)
(3.98752e-08 4.55004e-08 -2.02198e-07)
(-1.10904e-07 -6.36376e-08 -2.2535e-07)
(8.01303e-08 8.41694e-08 -3.55148e-07)
(-1.4463e-07 -9.93849e-08 -4.23869e-07)
(-1.44622e-07 9.93796e-08 -4.23868e-07)
(-3.43956e-09 1.38095e-08 -3.15565e-07)
(-1.61815e-07 1.28588e-07 -5.70166e-07)
(3.68351e-09 8.94507e-09 -4.10934e-07)
(1.99839e-07 -1.76566e-07 -7.46975e-07)
(-2.69586e-07 2.25159e-07 -9.84729e-07)
(3.02618e-09 5.45252e-09 -7.04394e-07)
(3.42619e-07 -2.97312e-07 -1.27016e-06)
(-4.4725e-07 3.80252e-07 -1.63892e-06)
(3.05308e-10 1.89615e-10 -1.1618e-06)
(5.60262e-07 -4.81346e-07 -2.07008e-06)
(-7.09903e-07 6.09727e-07 -2.59901e-06)
(-5.90762e-09 -1.0772e-08 -1.82315e-06)
(8.70465e-07 -7.41159e-07 -3.20691e-06)
(-1.06739e-06 9.27371e-07 -3.91294e-06)
(-1.86789e-08 -3.85206e-08 -2.71663e-06)
(1.29217e-06 -1.08183e-06 -4.71629e-06)
(-1.51151e-06 1.3423e-06 -5.59245e-06)
(-3.72318e-08 -1.12754e-07 -3.84194e-06)
(1.88323e-06 -1.49611e-06 -6.54799e-06)
(-1.97056e-06 1.8498e-06 -7.70026e-06)
(-1.09477e-07 -3.26277e-07 -5.34503e-06)
(3.07833e-06 -2.08746e-06 -8.28383e-06)
(5.04168e-07 -9.79823e-07 -5.74793e-06)
(3.63531e-06 -2.19909e-06 -7.39172e-06)
(3.63529e-06 2.19912e-06 -7.39169e-06)
(-3.33157e-07 -1.37143e-07 -7.84084e-06)
(8.19869e-07 -6.16153e-07 -7.90276e-06)
(-2.92488e-07 1.14947e-06 -7.05824e-06)
(1.16748e-06 1.02491e-06 -6.53918e-06)
(6.15619e-08 -1.14886e-11 -9.43232e-06)
(-7.36992e-07 -7.24128e-07 -6.24973e-06)
(-7.36991e-07 7.24133e-07 -6.24978e-06)
(8.0541e-07 7.57952e-07 -6.29964e-06)
(-3.94638e-08 -7.24159e-12 -9.44423e-06)
(-9.47783e-07 -9.12542e-07 -6.38125e-06)
(-9.47769e-07 9.12541e-07 -6.38127e-06)
(2.53792e-07 3.7069e-07 -6.06496e-06)
(-3.07104e-07 -5.60265e-12 -9.32225e-06)
(-1.34987e-06 -2.39088e-06 -7.73545e-06)
(-1.34988e-06 2.39085e-06 -7.73542e-06)
(4.63594e-07 -1.5083e-06 -8.97493e-06)
(1.92679e-06 1.485e-11 -1.27312e-05)
(4.63607e-07 1.50825e-06 -8.97495e-06)
(7.38141e-07 -1.17773e-06 -9.1205e-06)
(2.10626e-06 7.47539e-07 -1.25853e-05)
(8.91196e-07 1.72265e-06 -9.09188e-06)
(1.20959e-06 1.20563e-06 -1.05702e-05)
(1.5469e-06 1.5429e-06 -9.11979e-06)
(-2.33602e-06 -2.31698e-06 -8.90992e-06)
(-1.3583e-06 1.63291e-06 -7.36638e-06)
(1.31628e-06 2.13521e-07 -8.58893e-06)
(8.76297e-07 1.38082e-07 -1.00631e-05)
(-4.13299e-09 1.91575e-08 -9.35554e-06)
(2.53802e-07 -3.70703e-07 -6.06495e-06)
(-1.52775e-07 -1.35285e-07 -5.79451e-06)
(-3.96864e-07 -3.88363e-07 -9.20702e-06)
(1.62479e-06 -1.32669e-06 -7.39807e-06)
(-1.1961e-06 7.34332e-07 -9.12378e-06)
(7.42139e-07 2.078e-06 -1.25857e-05)
(1.72338e-06 8.88408e-07 -9.09772e-06)
(9.85312e-07 9.86704e-07 -1.00892e-05)
(-5.25238e-07 -5.12605e-07 -9.20391e-06)
(-7.04987e-07 1.09364e-11 -9.30074e-06)
(-5.25211e-07 5.12633e-07 -9.20386e-06)
(-3.96883e-07 3.88363e-07 -9.20701e-06)
(-1.35827e-06 -1.63293e-06 -7.36636e-06)
(-2.33599e-06 2.31693e-06 -8.90995e-06)
(8.91213e-07 -1.72281e-06 -9.09163e-06)
(2.10633e-06 -7.47647e-07 -1.25854e-05)
(7.38194e-07 1.1777e-06 -9.12042e-06)
(1.31628e-06 -2.13567e-07 -8.58903e-06)
(8.76314e-07 -1.38093e-07 -1.00631e-05)
(9.85442e-07 -9.86607e-07 -1.00892e-05)
(1.72324e-06 -8.88475e-07 -9.0981e-06)
(7.4202e-07 -2.07796e-06 -1.25855e-05)
(-1.19611e-06 -7.3437e-07 -9.1239e-06)
(1.62473e-06 1.32667e-06 -7.39805e-06)
(1.99604e-07 -1.32489e-06 -8.58097e-06)
(1.4861e-06 -5.06812e-07 -9.03424e-06)
(-3.7218e-08 -1.92252e-06 -1.27407e-05)
(-1.55008e-06 -4.48443e-07 -8.98678e-06)
(2.37965e-06 1.24935e-06 -7.76023e-06)
(-3.70636e-08 2.9993e-07 -9.3354e-06)
(-4.22628e-07 -2.85629e-07 -6.06129e-06)
(-2.44863e-06 1.35746e-06 -7.7432e-06)
(-4.28658e-08 -2.76499e-07 -8.74427e-06)
(-2.86501e-07 -3.37599e-07 -8.84936e-06)
(1.79692e-08 -5.15289e-09 -5.33473e-06)
(1.46022e-08 -2.19981e-08 -3.86626e-06)
(7.09339e-09 -3.22436e-08 -2.67476e-06)
(3.95102e-09 -2.99428e-08 -1.75591e-06)
(2.26027e-09 -2.35573e-08 -1.09449e-06)
(9.89165e-10 -1.71094e-08 -6.51113e-07)
(1.88354e-10 -1.15698e-08 -3.7889e-07)
(-3.68285e-09 -1.21076e-08 -3.70207e-07)
(1.35912e-07 -8.09669e-08 -3.89042e-07)
(-1.47257e-07 -6.88232e-08 -3.84642e-07)
(1.47871e-07 -6.18329e-08 -3.85564e-07)
(-1.34104e-07 -9.51842e-08 -3.87968e-07)
(1.64709e-07 1.42289e-07 -5.13859e-07)
(-2.29187e-07 -1.73588e-07 -6.83017e-07)
(2.90761e-07 2.41892e-07 -8.86862e-07)
(-3.8862e-07 -3.05306e-07 -1.16607e-06)
(4.89721e-07 3.98119e-07 -1.48515e-06)
(-6.31533e-07 -5.10553e-07 -1.90236e-06)
(7.84025e-07 6.24499e-07 -2.36631e-06)
(-9.77138e-07 -8.10748e-07 -2.94919e-06)
(1.19273e-06 9.28247e-07 -3.57698e-06)
(-1.43532e-06 -1.2241e-06 -4.34188e-06)
(1.7205e-06 1.3052e-06 -5.11669e-06)
(-1.97614e-06 -1.73983e-06 -6.08017e-06)
(-2.85201e-08 2.1327e-08 -5.34257e-06)
(1.66553e-06 -1.65756e-06 -5.85285e-06)
(1.6855e-06 1.9672e-06 -6.06062e-06)
(1.21071e-06 -2.16818e-06 -5.9419e-06)
(-9.26622e-07 1.94108e-06 -5.10942e-06)
(3.64321e-08 -8.00537e-12 -3.95683e-06)
(-9.26441e-07 -1.94106e-06 -5.10947e-06)
(8.52436e-07 1.58845e-06 -4.27238e-06)
(1.1794e-06 -1.42945e-06 -4.33282e-06)
(1.16999e-06 1.16033e-06 -4.21029e-06)
(-9.30525e-07 -9.11049e-07 -3.51243e-06)
(-9.03442e-07 1.20442e-06 -3.5857e-06)
(4.0403e-08 1.15926e-08 -2.66569e-06)
(7.80235e-07 7.71884e-07 -2.87167e-06)
(8.36849e-09 4.67332e-08 -2.66129e-06)
(1.19287e-06 -9.28159e-07 -3.57707e-06)
(-2.19445e-08 -5.50161e-08 -3.21999e-06)
(-1.36931e-06 -6.15362e-07 -3.56649e-06)
(1.33245e-06 -7.0346e-07 -3.55131e-06)
(-3.39022e-09 4.76405e-08 -2.71617e-06)
(-1.0916e-06 6.0792e-07 -2.91836e-06)
(1.00842e-06 6.64182e-07 -2.91575e-06)
(-1.25181e-06 -7.86588e-07 -3.57004e-06)
(-2.29518e-09 -6.02668e-08 -3.22152e-06)
(-1.60175e-06 9.15055e-07 -4.28698e-06)
(-6.75328e-09 3.89862e-08 -3.94292e-06)
(1.91812e-06 -9.8125e-07 -5.07689e-06)
(-2.19043e-06 1.28475e-06 -5.97595e-06)
(-1.21898e-08 -4.10819e-08 -5.41101e-06)
(-2.68308e-06 -1.2014e-06 -6.82414e-06)
(-8.9928e-08 -2.95231e-08 -6.199e-06)
(1.25296e-06 5.90992e-08 -6.67555e-06)
(-6.29e-08 -1.05406e-06 -1.08006e-05)
(1.99646e-07 1.32485e-06 -8.581e-06)
(-2.44866e-06 -1.35751e-06 -7.74314e-06)
(-4.22607e-07 2.85601e-07 -6.06126e-06)
(7.30352e-08 9.42322e-08 -8.86488e-06)
(-3.55529e-08 -1.6902e-08 -6.54787e-06)
(-2.60365e-08 -1.11579e-11 -5.60893e-06)
(-2.22793e-08 1.15651e-08 -5.26496e-06)
(-1.34026e-08 -8.17949e-09 -3.82608e-06)
(-6.63748e-09 -2.13013e-08 -2.64662e-06)
(-3.04e-09 -2.21098e-08 -1.73688e-06)
(-1.33648e-09 -1.82056e-08 -1.0821e-06)
(-5.877e-10 -1.35354e-08 -6.43572e-07)
(-2.20299e-10 -9.07509e-09 -3.74682e-07)
(5.766e-10 3.94405e-09 -2.86469e-07)
(-3.60237e-12 -5.34201e-09 -2.36001e-07)
(-7.04026e-09 5.70482e-09 -1.64634e-07)
(4.23746e-10 6.54429e-09 -2.85816e-07)
(1.13003e-09 6.97071e-10 -1.60477e-07)
(4.88702e-08 -3.53941e-08 -1.94071e-07)
(4.48016e-09 4.07497e-08 -2.2415e-07)
(-1.89675e-09 -2.53066e-08 -3.27702e-07)
(-6.51799e-08 2.38035e-08 -2.6566e-07)
(5.85053e-08 1.45374e-08 -2.64689e-07)
(-5.91023e-08 1.24166e-08 -2.63509e-07)
(6.25206e-08 2.86856e-08 -2.67806e-07)
(-2.75424e-08 2.07767e-08 -2.48105e-07)
(1.1049e-07 -6.02069e-09 -1.84141e-07)
(-3.46082e-08 -7.10477e-08 -2.84114e-07)
(9.06245e-08 1.31401e-07 -3.8969e-07)
(9.39126e-09 -9.92143e-10 -3.69315e-07)
(-1.35782e-07 -1.67748e-07 -5.24574e-07)
(-1.36018e-07 1.34472e-07 -4.92177e-07)
(1.09635e-07 -1.00202e-07 -3.77614e-07)
(4.7029e-09 -1.19642e-08 -3.64274e-07)
(9.07306e-10 -5.07312e-09 -3.92142e-07)
(-1.06086e-08 2.88385e-08 -2.66829e-07)
(2.19007e-10 2.91314e-08 -2.68097e-07)
(1.19608e-08 2.89521e-08 -2.66402e-07)
(2.46109e-08 1.84467e-08 -2.54833e-07)
(3.26932e-08 2.15539e-08 -2.56821e-07)
(-4.82256e-09 -1.87377e-09 -4.00399e-07)
(1.53389e-09 6.79196e-09 -3.97189e-07)
(1.54639e-08 1.21721e-08 -3.03141e-07)
(-1.01375e-09 -4.94339e-09 -3.93351e-07)
(-8.1712e-09 -2.56296e-08 -6.81467e-07)
(-9.3618e-09 -5.79837e-09 -6.91562e-07)
(-1.32697e-08 -9.228e-09 -6.86126e-07)
(-2.32097e-08 -1.79096e-08 -1.15263e-06)
(-2.16573e-08 -1.95525e-08 -1.17462e-06)
(7.47061e-09 7.44007e-09 -9.11114e-07)
(7.43485e-09 7.96683e-09 -5.26447e-07)
(3.84384e-09 1.06574e-08 -5.10517e-07)
(-1.72483e-07 1.23386e-07 -5.09092e-07)
(1.85675e-07 1.08565e-07 -5.11557e-07)
(-2.54201e-07 -1.27359e-07 -6.76654e-07)
(2.55284e-07 -1.10993e-07 -6.76298e-07)
(-2.45146e-09 1.20773e-08 -4.83359e-07)
(-1.89189e-07 9.82245e-08 -5.09471e-07)
(-2.86444e-10 -1.34004e-08 -3.73528e-07)
(6.66985e-12 -2.82126e-09 -3.94024e-07)
(2.23632e-10 -2.43205e-08 -6.81402e-07)
(5.55661e-10 -5.08622e-08 -1.16077e-06)
(-1.43847e-08 -5.12558e-08 -1.15955e-06)
(-2.2728e-08 -8.78992e-08 -1.87582e-06)
(-4.03574e-08 -3.93395e-08 -1.89929e-06)
(-3.7858e-08 -3.03357e-08 -1.85041e-06)
(-5.84498e-08 -4.77443e-08 -2.8235e-06)
(-7.04308e-08 -7.27174e-08 -2.91464e-06)
(2.28463e-09 1.06722e-09 -2.37226e-06)
(6.66351e-09 5.855e-09 -1.5086e-06)
(7.7075e-09 1.44043e-08 -1.46728e-06)
(-5.15027e-07 3.34815e-07 -1.47822e-06)
(5.4992e-07 3.0436e-07 -1.476e-06)
(-7.04761e-07 -3.8219e-07 -1.88453e-06)
(7.07822e-07 -3.304e-07 -1.87781e-06)
(-7.5608e-09 2.89417e-08 -1.37517e-06)
(-5.62385e-07 2.65824e-07 -1.47614e-06)
(4.34751e-07 -1.96358e-07 -1.1528e-06)
(-4.57761e-09 1.94858e-08 -8.32265e-07)
(-3.34225e-07 1.63621e-07 -8.80437e-07)
(-5.30092e-10 -1.96114e-08 -6.48011e-07)
(3.27324e-07 1.85458e-07 -8.81916e-07)
(-4.32761e-07 -2.27137e-07 -1.15555e-06)
(1.3199e-09 2.0588e-08 -8.34106e-07)
(-3.0565e-07 2.05e-07 -8.81348e-07)
(2.36041e-07 -1.45204e-07 -6.81383e-07)
(1.18197e-09 1.28733e-08 -4.8439e-07)
(3.96618e-10 2.30754e-09 -5.42082e-07)
(-6.65309e-09 -6.77217e-09 -5.199e-07)
(-1.61794e-07 -1.28568e-07 -5.70165e-07)
(5.29394e-09 1.50711e-09 -3.08026e-07)
(1.12959e-07 1.03978e-07 -4.40825e-07)
(4.7597e-09 -1.32133e-08 -2.47017e-07)
(-1.16606e-07 -7.77962e-08 -3.21456e-07)
(-5.61131e-08 -1.63238e-08 -1.7883e-07)
(2.41885e-08 -7.41245e-09 -2.49418e-07)
(-6.60705e-09 -2.47302e-09 -2.98654e-07)
(-9.00353e-11 3.21987e-09 -3.08353e-07)
(-7.64195e-10 1.0185e-08 -2.89568e-07)
(2.40946e-09 1.48545e-08 -2.98241e-07)
(-3.28142e-09 1.42927e-08 -2.98018e-07)
(1.77646e-09 -2.60151e-08 -3.26632e-07)
(-1.49211e-08 1.24877e-08 -3.10514e-07)
(-1.96407e-08 1.84381e-08 -2.54354e-07)
(-1.06606e-08 1.1121e-08 -2.60608e-07)
(1.20496e-08 -7.64751e-10 -4.01131e-07)
(-5.5936e-09 3.88751e-09 -3.8947e-07)
(-9.14167e-09 8.66139e-09 -5.33966e-07)
(-5.18668e-09 9.97914e-09 -5.09695e-07)
(9.17432e-09 -2.57744e-08 -6.78367e-07)
(1.71696e-08 -5.19279e-08 -1.15507e-06)
(2.80934e-08 -8.99148e-08 -1.87148e-06)
(8.61129e-10 -8.93406e-08 -1.88057e-06)
(9.61632e-10 -1.50057e-07 -2.88691e-06)
(-3.47225e-08 -1.43974e-07 -2.87592e-06)
(-5.59819e-08 -2.40586e-07 -4.18713e-06)
(-1.24775e-07 -1.41576e-07 -4.25385e-06)
(-8.70527e-08 -7.31375e-08 -4.09339e-06)
(-1.61006e-07 -1.44568e-07 -5.62518e-06)
(-2.80748e-07 -3.32638e-07 -5.95035e-06)
(-5.12257e-08 -4.35462e-08 -5.02187e-06)
(-1.0996e-08 -1.18026e-08 -3.54229e-06)
(8.94958e-09 1.00297e-08 -3.46689e-06)
(-1.25178e-06 7.86595e-07 -3.56995e-06)
(1.33238e-06 7.03542e-07 -3.55123e-06)
(-1.60179e-06 -9.15016e-07 -4.28698e-06)
(1.60061e-06 -8.02189e-07 -4.25513e-06)
(-2.19991e-08 5.5022e-08 -3.22001e-06)
(-1.36923e-06 6.15388e-07 -3.56644e-06)
(1.09468e-06 -5.27567e-07 -2.90387e-06)
(-1.2499e-08 4.05485e-08 -2.16034e-06)
(-8.99642e-07 4.14185e-07 -2.35469e-06)
(-1.7122e-09 -3.87591e-08 -1.77366e-06)
(8.77986e-07 4.75489e-07 -2.35048e-06)
(-1.09161e-06 -6.07879e-07 -2.91835e-06)
(7.95813e-11 4.37413e-08 -2.16279e-06)
(-8.24049e-07 5.25298e-07 -2.35768e-06)
(6.53119e-07 -4.19641e-07 -1.88706e-06)
(1.07128e-09 3.07972e-08 -1.37761e-06)
(5.3141e-10 5.37169e-09 -1.52761e-06)
(6.27695e-10 3.64828e-09 -9.28805e-07)
(-9.55843e-09 -1.0784e-08 -8.8829e-07)
(-2.69575e-07 -2.25131e-07 -9.84715e-07)
(2.87855e-09 1.10354e-09 -5.36601e-07)
(1.99842e-07 1.76566e-07 -7.46956e-07)
(3.69271e-09 -8.94667e-09 -4.10932e-07)
(1.47353e-08 -3.73241e-09 -4.1877e-07)
(-2.33651e-07 -1.7605e-07 -7.30029e-07)
(2.84574e-07 2.43558e-07 -9.56742e-07)
(-3.90607e-07 -3.02341e-07 -1.23648e-06)
(-3.90605e-07 3.02351e-07 -1.23646e-06)
(-9.5784e-10 7.38743e-09 -9.04854e-07)
(4.81359e-07 -4.03153e-07 -1.5865e-06)
(6.63855e-09 6.08129e-09 -1.1816e-06)
(-6.32188e-07 4.95678e-07 -2.00887e-06)
(-1.00105e-09 3.9378e-09 -1.45336e-06)
(7.69139e-07 -6.36463e-07 -2.51336e-06)
(3.79518e-10 8.29992e-09 -1.85187e-06)
(-9.71e-07 7.70618e-07 -3.10422e-06)
(-2.17995e-10 -6.92584e-09 -2.21947e-06)
(1.16619e-06 -9.51973e-07 -3.78153e-06)
(-2.0429e-08 8.39416e-09 -2.75324e-06)
(-1.39595e-06 1.13548e-06 -4.55643e-06)
(8.3159e-09 -4.40215e-08 -3.21934e-06)
(1.69241e-06 -1.34246e-06 -5.38883e-06)
(-9.79046e-08 -3.58993e-09 -3.87892e-06)
(-1.83252e-06 1.58677e-06 -6.3707e-06)
(5.74652e-08 -1.83095e-07 -4.43168e-06)
(2.42266e-06 -1.73691e-06 -7.15288e-06)
(-4.09847e-07 -1.44833e-07 -5.22545e-06)
(-1.95313e-06 2.00774e-06 -8.62127e-06)
(-2.6337e-07 -3.8369e-11 -7.00389e-06)
(-1.95308e-06 -2.00775e-06 -8.62128e-06)
(5.0416e-07 9.79663e-07 -5.74794e-06)
(3.07837e-06 2.08757e-06 -8.28368e-06)
(-1.09448e-07 3.26139e-07 -5.34499e-06)
(-1.97045e-06 -1.84972e-06 -7.70027e-06)
(-8.05398e-08 -2.02906e-08 -4.43009e-06)
(1.88314e-06 1.49606e-06 -6.54789e-06)
(-3.72179e-08 1.12674e-07 -3.8419e-06)
(-1.51149e-06 -1.34223e-06 -5.59241e-06)
(-4.0346e-08 -5.58844e-09 -3.238e-06)
(1.29223e-06 1.08196e-06 -4.71623e-06)
(-1.86457e-08 3.84426e-08 -2.71664e-06)
(-1.06722e-06 -9.27268e-07 -3.91296e-06)
(-1.78427e-08 -2.46158e-09 -2.23301e-06)
(8.70509e-07 7.41249e-07 -3.20688e-06)
(-5.87624e-09 1.06831e-08 -1.82312e-06)
(-7.09871e-07 -6.097e-07 -2.59902e-06)
(-6.87608e-09 -6.58415e-10 -1.46053e-06)
(5.6026e-07 4.81376e-07 -2.07001e-06)
(3.35145e-10 -2.2559e-10 -1.16178e-06)
(-4.47232e-07 -3.80225e-07 -1.63893e-06)
(-8.76731e-10 4.53749e-10 -9.06743e-07)
(3.42622e-07 2.9733e-07 -1.27012e-06)
(3.04932e-09 -5.44636e-09 -7.04383e-07)
(1.02088e-08 -4.35684e-09 -7.17059e-07)
(-1.73047e-08 -1.72836e-08 -9.1734e-07)
(-1.36513e-08 -1.05569e-08 -5.4526e-07)
(-9.78339e-09 -3.93474e-09 -3.30316e-07)
(3.17077e-08 1.54084e-08 -2.4066e-07)
(2.10024e-09 -8.46564e-12 -2.25767e-07)
(-1.86589e-08 -6.70589e-13 -2.70845e-07)
(-3.1125e-08 -2.14255e-11 -4.18037e-07)
(-4.39069e-08 2.1973e-12 -6.94244e-07)
(-6.19014e-08 2.07215e-11 -1.14989e-06)
(-8.56751e-08 4.17245e-11 -1.8346e-06)
(-1.0659e-07 8.89822e-11 -2.78784e-06)
(-9.45695e-08 3.27395e-10 -4.02212e-06)
(3.65415e-09 1.03657e-10 -5.49104e-06)
(1.46178e-07 -3.42207e-11 -6.87491e-06)
(-1.66184e-07 -1.15466e-10 -7.94953e-06)
(-1.31418e-06 6.20474e-07 -7.81555e-06)
(-1.31419e-06 -6.20564e-07 -7.81555e-06)
(-1.35402e-06 -8.63568e-07 -7.23218e-06)
(-1.12174e-06 -8.38068e-07 -8.46804e-06)
(-3.89728e-07 -2.32557e-07 -6.69943e-06)
(-1.49262e-07 -4.55327e-07 -5.83548e-06)
(-6.10752e-07 -1.41036e-06 -8.19472e-06)
(9.75765e-07 4.08308e-06 -5.74128e-06)
(1.55407e-06 -3.45506e-07 -6.80409e-06)
(3.08768e-08 4.39653e-08 -6.2008e-06)
(9.28781e-09 -1.12317e-08 -6.35588e-06)
(8.87445e-08 -3.1116e-08 -6.1752e-06)
(-4.0979e-07 1.44838e-07 -5.22543e-06)
(2.42252e-06 1.73701e-06 -7.15278e-06)
(5.75233e-08 1.82988e-07 -4.43162e-06)
(-1.83251e-06 -1.5867e-06 -6.3707e-06)
(-1.73592e-07 -1.40621e-11 -5.19893e-06)
(-6.65847e-08 -1.40031e-11 -5.35684e-06)
(-6.31726e-08 -1.58548e-11 -3.87889e-06)
(8.40339e-09 4.39996e-08 -3.21927e-06)
(-1.39594e-06 -1.13547e-06 -4.55646e-06)
(1.69236e-06 1.34248e-06 -5.38869e-06)
(-9.7904e-08 3.58359e-09 -3.87898e-06)
(-5.19465e-09 -2.4557e-08 -4.75877e-06)
(-1.87764e-08 -2.47632e-08 -3.3827e-06)
(-2.04653e-08 -8.42022e-09 -2.75323e-06)
(1.16603e-06 9.51991e-07 -3.78144e-06)
(-1.71592e-10 6.90064e-09 -2.21945e-06)
(-9.70929e-07 -7.70632e-07 -3.10429e-06)
(-3.05222e-08 1.2036e-11 -2.59082e-06)
(-5.22243e-08 -1.40828e-12 -2.68236e-06)
(-3.94975e-08 -5.36306e-12 -1.76197e-06)
(-2.71797e-08 -7.22355e-12 -1.10018e-06)
(-9.3367e-10 -7.42061e-09 -9.04841e-07)
(4.8135e-07 4.03162e-07 -1.58645e-06)
(-6.32187e-07 -4.95672e-07 -2.00892e-06)
(7.6911e-07 6.36503e-07 -2.51329e-06)
(3.83146e-10 -8.28195e-09 -1.85182e-06)
(-1.78946e-08 -2.09779e-08 -2.28026e-06)
(-1.36821e-08 -1.57452e-08 -1.45902e-06)
(1.66628e-09 -6.67976e-12 -1.1563e-06)
(1.06362e-09 -3.68466e-12 -6.88768e-07)
(3.52437e-10 6.77466e-13 -4.03598e-07)
(-8.73854e-09 -7.36607e-13 -3.8647e-07)
(-3.43756e-09 -1.3815e-08 -3.15567e-07)
(1.58842e-07 1.43155e-07 -5.6436e-07)
(8.80428e-09 -1.62714e-12 -3.75032e-07)
(1.58855e-07 -1.43159e-07 -5.64361e-07)
(1.47237e-08 3.73641e-09 -4.18769e-07)
(-2.3364e-07 1.76057e-07 -7.30026e-07)
(-1.46943e-09 9.50404e-09 -5.39201e-07)
(2.84606e-07 -2.43565e-07 -9.5678e-07)
(1.02209e-08 4.35275e-09 -7.17066e-07)
(-9.55894e-09 1.07771e-08 -8.88295e-07)
(-1.66713e-08 1.96585e-12 -6.57162e-07)
(-1.46455e-09 -9.52437e-09 -5.39185e-07)
(2.51842e-09 4.55383e-12 -6.32644e-07)
(-6.65092e-09 6.76986e-09 -5.19899e-07)
(-6.60532e-09 2.47264e-09 -2.98656e-07)
(-1.16612e-07 7.77996e-08 -3.21456e-07)
(4.76001e-09 1.32042e-08 -2.47022e-07)
(1.12957e-07 -1.03977e-07 -4.40836e-07)
(2.41853e-08 7.41361e-09 -2.49425e-07)
(8.01266e-08 -8.41683e-08 -3.5515e-07)
(-1.62436e-08 3.10366e-08 -1.93965e-07)
(-1.10907e-07 6.36377e-08 -2.25349e-07)
(1.01899e-08 2.77463e-12 -2.48166e-07)
(3.98763e-08 -4.54982e-08 -2.02203e-07)
(5.62516e-08 1.42953e-08 -1.64752e-07)
(2.57261e-08 -5.73988e-08 -1.91713e-07)
(6.81382e-08 -1.59216e-08 -2.00125e-07)
(2.57793e-08 -2.12913e-08 -2.6652e-07)
(9.47221e-09 -2.11748e-09 -2.06606e-07)
(-2.09183e-08 -1.26165e-08 -1.92853e-07)
(1.19928e-08 -6.77816e-09 -2.26634e-07)
(-5.0684e-09 4.97489e-09 -2.05808e-07)
(-5.34602e-09 1.45774e-08 -2.04971e-07)
(2.23757e-08 -1.92773e-08 -2.16363e-07)
(-4.98878e-09 6.58643e-09 -1.89807e-07)
(3.40115e-09 -1.99729e-08 -2.22279e-07)
(1.15878e-10 1.45942e-08 -2.07282e-07)
(1.42924e-10 -3.01005e-13 -2.12772e-07)
(1.14805e-10 -1.45947e-08 -2.0728e-07)
(7.2355e-12 -7.31857e-09 -1.90048e-07)
(1.74851e-10 3.94479e-08 -2.9839e-07)
(3.40222e-09 1.99729e-08 -2.22283e-07)
(-3.88206e-10 2.89039e-09 -2.24736e-07)
(1.19933e-08 6.78043e-09 -2.26636e-07)
(-3.82465e-09 -5.52535e-09 -1.79462e-07)
(-2.09201e-08 1.26185e-08 -1.92853e-07)
(9.47234e-09 2.11671e-09 -2.06604e-07)
(2.0577e-11 2.96463e-09 -2.25038e-07)
(6.57459e-09 -1.39675e-08 -2.04115e-07)
(5.61965e-09 -6.08411e-09 -1.89479e-07)
(-3.68187e-09 1.99419e-08 -2.22912e-07)
(-2.20683e-08 1.86581e-08 -2.16494e-07)
(6.54767e-09 -4.16801e-09 -2.056e-07)
(-1.19492e-08 4.95863e-09 -2.21394e-07)
(2.2227e-08 2.80008e-08 -1.71272e-07)
(6.77813e-08 -3.87479e-08 -2.28586e-07)
(-4.08026e-08 3.85047e-08 -2.28437e-07)
(1.30842e-08 -4.17075e-09 -3.12676e-07)
(5.95559e-09 2.93384e-13 -2.07938e-07)
(3.40304e-09 2.69233e-12 -2.41633e-07)
(3.48184e-09 1.59733e-12 -2.8864e-07)
(2.48832e-10 -4.63197e-13 -2.92129e-07)
(-1.91194e-10 6.62157e-13 -2.46248e-07)
(-3.02753e-10 -1.54408e-12 -4.03175e-07)
(-7.41199e-10 -5.67544e-13 -6.88013e-07)
(-1.54225e-09 2.18548e-12 -1.15551e-06)
(-3.3762e-09 -3.85636e-12 -1.85316e-06)
(2.21997e-09 -2.9491e-12 -1.85408e-06)
(3.39334e-09 1.24182e-11 -2.82336e-06)
(7.93081e-09 1.09267e-11 -4.07933e-06)
(2.0737e-08 -8.49999e-12 -5.61915e-06)
(-1.42508e-07 -1.3962e-11 -8.51515e-06)
(-4.00722e-07 8.34329e-13 -7.85217e-06)
(1.59212e-06 -5.22354e-11 -1.19062e-05)
(-2.92483e-07 -1.14953e-06 -7.0582e-06)
(8.19882e-07 6.16183e-07 -7.90291e-06)