/*--------------------------------*- C++ -*----------------------------------*\
| =========                 |                                                 |
| \\      /  F ield         | OpenFOAM: The Open Source CFD Toolbox           |
|  \\    /   O peration     | Version:  2306                                  |
|   \\  /    A nd           | Website:  www.openfoam.com                      |
|    \\/     M anipulation  |                                                 |
\*---------------------------------------------------------------------------*/
FoamFile
{
    version     2.0;
    format      ascii;
    arch        "LSB;label=32;scalar=64";
    class       volScalarField;
    location    "1.6";
    object      gradTz;
}
// * * * * * * * * * * * * * * * * * * * * * * * * * * * * * * * * * * * * * //

dimensions      [0 -1 0 1 0 0 0];

internalField   nonuniform List<scalar> 
2658
(
-0.0733341
-0.0705057
-0.0504145
-0.0457024
-0.0573884
-0.0587286
-0.0518008
-0.0500243
-0.0456637
-0.0585554
-0.0595778
-0.0480731
-0.0649552
-0.0609711
-0.0627753
-0.064525
-0.0623232
-0.0643788
-0.062695
-0.0601631
-0.0638741
-0.0575376
-0.0656691
-0.0496867
-0.0780382
-0.063773
-0.0571693
-0.0670167
-0.0686361
-0.0567567
-0.0686355
-0.0571693
-0.0637724
-0.0656683
-0.0780382
-0.049686
-0.0631833
-0.0897096
-0.0575369
-0.0638757
-0.0601639
-0.0626952
-0.0643782
-0.0923792
-0.057695
-0.0570557
-0.0595781
-0.0923125
-0.0645259
-0.0627757
-0.0609705
-0.0649557
-0.0581662
-0.0930385
-0.0650127
-0.0628611
-0.0923172
-0.0573194
-0.0501272
-0.0644458
-0.0923182
-0.0628619
-0.0650133
-0.0930388
-0.0591757
-0.0481692
-0.0594221
-0.0529318
-0.0580741
-0.0580728
-0.0463669
-0.0507843
-0.0387528
-0.043859
-0.0331493
-0.0433962
-0.0437333
-0.0331036
-0.0371099
-0.0363691
-0.0437351
-0.0387351
-0.0505229
-0.0519668
-0.0430305
-0.0310679
-0.0214481
-0.014061
-0.00875507
-0.00520523
-0.00302851
-0.00244267
-0.00197161
-0.00164793
-0.00173162
-0.00192029
-0.00169861
-0.00255039
-0.0016995
-0.00172189
-0.0025633
-0.00174368
-0.00192496
-0.00209355
-0.00177371
-0.00196889
-0.00142145
-0.00251071
-0.00153387
-0.00226674
-0.00209767
-0.00171808
-0.00234599
-0.00171801
-0.00209768
-0.00226676
-0.00177377
-0.0019689
-0.00192497
-0.00209357
-0.00174362
-0.00256316
-0.00172188
-0.00169948
-0.00171931
-0.00172748
-0.00164787
-0.00192037
-0.00169861
-0.00173167
-0.0025596
-0.00172684
-0.00206835
-0.00171503
-0.00224571
-0.00161696
-0.00157617
-0.00191153
-0.00163358
-0.00163364
-0.00157611
-0.00161695
-0.001771
-0.00186292
-0.00233749
-0.00186205
-0.00219284
-0.00215634
-0.00150768
-0.00151515
-0.00142477
-0.00203321
-0.00202801
-0.00127187
-0.00173345
-0.00164739
-0.00149569
-0.00163763
-0.0015305
-0.00160772
-0.00165674
-0.00156471
-0.0016577
-0.00160601
-0.00152074
-0.00162773
-0.00148955
-0.00171048
-0.00262042
-0.0023684
-0.00340512
-0.00461745
-0.00610287
-0.00797948
-0.0104159
-0.0133475
-0.0169764
-0.0212461
-0.0262771
-0.0321004
-0.0385964
-0.0459645
-0.0538651
-0.0608191
-0.0588541
-0.0577559
-0.0583261
-0.0585546
-0.0573878
-0.0457017
-0.0587293
-0.0594212
-0.0481692
-0.0591757
-0.0480732
-0.0781742
-0.0430305
-0.0310678
-0.0214481
-0.0140609
-0.00875499
-0.00520514
-0.00302845
-0.00244268
-0.00197162
-0.00136307
-0.00148388
-0.00244665
-0.00152452
-0.00152452
-0.0014839
-0.00136306
-0.00244666
-0.00141063
-0.00172745
-0.00171932
-0.00191581
-0.00165873
-0.00197452
-0.00137163
-0.00140713
-0.00201712
-0.00244846
-0.00244035
-0.00251395
-0.00244033
-0.00197451
-0.00142143
-0.00154157
-0.00251071
-0.00163283
-0.00163283
-0.00154156
-0.00207994
-0.00150195
-0.00151562
-0.00151561
-0.0024429
-0.00150194
-0.0019208
-0.00178576
-0.00175194
-0.00162244
-0.00184924
-0.00175907
-0.001834
-0.00259412
-0.002266
-0.00165785
-0.00227789
-0.0016386
-0.00140814
-0.00172819
-0.00192607
-0.00303546
-0.00362281
-0.00362281
-0.00269714
-0.00487322
-0.00351226
-0.00638441
-0.00841649
-0.00602046
-0.010856
-0.0140079
-0.00992992
-0.017693
-0.0222138
-0.0155825
-0.0274095
-0.0334439
-0.0232191
-0.0403102
-0.0477987
-0.0328371
-0.0559657
-0.0658142
-0.045684
-0.0708019
-0.0491276
-0.0631771
-0.0631768
-0.0670157
-0.067545
-0.0603268
-0.0558904
-0.0806182
-0.0534165
-0.0534169
-0.0538431
-0.0807199
-0.0545406
-0.0545408
-0.0518372
-0.0796774
-0.0661149
-0.0661147
-0.0767088
-0.108814
-0.076709
-0.077953
-0.107566
-0.0777084
-0.0903432
-0.0779469
-0.0761531
-0.0629605
-0.0734096
-0.0860091
-0.0799619
-0.0518372
-0.0495258
-0.0786925
-0.0632314
-0.077981
-0.10757
-0.0777583
-0.0862328
-0.0786659
-0.0794935
-0.0786655
-0.0786924
-0.0629604
-0.0761534
-0.0777062
-0.107567
-0.0779523
-0.0734106
-0.0860092
-0.0862328
-0.0777615
-0.107568
-0.077982
-0.0632312
-0.0733417
-0.0772157
-0.108894
-0.0768101
-0.0663267
-0.0797897
-0.0518059
-0.0661812
-0.0747374
-0.0756356
-0.045596
-0.033045
-0.0228612
-0.0150077
-0.00935461
-0.00556507
-0.00323837
-0.00316416
-0.00332514
-0.00328754
-0.00329542
-0.00331597
-0.00439196
-0.00583775
-0.00758002
-0.00996637
-0.0126936
-0.0162595
-0.0202249
-0.0252068
-0.0305725
-0.0371101
-0.0437324
-0.0519673
-0.045663
-0.0500244
-0.0518002
-0.0507854
-0.0436702
-0.0338191
-0.0436706
-0.0365161
-0.0370327
-0.0359854
-0.0300207
-0.030647
-0.0227836
-0.0245442
-0.0227461
-0.0305733
-0.0275213
-0.0304828
-0.0303531
-0.0232151
-0.0249433
-0.024921
-0.0305132
-0.0275344
-0.0366409
-0.0337001
-0.0433922
-0.0510765
-0.0462479
-0.0583259
-0.0529829
-0.057056
-0.0923127
-0.0733419
-0.0661807
-0.0518057
-0.0757682
-0.0559647
-0.0479396
-0.0449997
-0.0327015
-0.0226207
-0.0148451
-0.00924873
-0.00550062
-0.00320241
-0.00244845
-0.0020171
-0.00140713
-0.00244287
-0.0013716
-0.00165873
-0.00191582
-0.00280087
-0.0022706
-0.0022623
-0.00225222
-0.00228894
-0.00212055
-0.00157385
-0.00242832
-0.00333069
-0.00315654
-0.00448354
-0.00420664
-0.00322747
-0.00311345
-0.00335164
-0.00228059
-0.00229143
-0.00227694
-0.00217806
-0.00219505
-0.00342221
-0.00339478
-0.00259095
-0.00336198
-0.0058245
-0.00591078
-0.00586432
-0.00985151
-0.0100395
-0.0077873
-0.00449955
-0.00436339
-0.00435121
-0.00437228
-0.00578337
-0.00578032
-0.00413127
-0.00435446
-0.00319255
-0.00336773
-0.00582395
-0.00992112
-0.00991068
-0.0160326
-0.0162333
-0.0158155
-0.0241325
-0.0249115
-0.0202757
-0.012894
-0.0125409
-0.0126344
-0.0126153
-0.0161071
-0.0160496
-0.0117536
-0.0126166
-0.00985298
-0.00711338
-0.0075251
-0.00553855
-0.00753774
-0.00987646
-0.00712911
-0.00753289
-0.00582379
-0.00414009
-0.00463318
-0.00444359
-0.0048732
-0.0026327
-0.00376773
-0.00211126
-0.00274749
-0.00152846
-0.00213178
-0.0025526
-0.0026355
-0.00247494
-0.00254907
-0.00254716
-0.00279173
-0.00265397
-0.00217397
-0.00222742
-0.00342847
-0.0033288
-0.00456381
-0.00435637
-0.00579801
-0.00987242
-0.0159955
-0.0160733
-0.0246745
-0.0245805
-0.0357875
-0.0363577
-0.0349863
-0.0480785
-0.0508577
-0.042922
-0.030276
-0.0296316
-0.0305124
-0.0303524
-0.0366408
-0.0363687
-0.0275215
-0.0304824
-0.0248194
-0.0184644
-0.0201256
-0.0151595
-0.0200896
-0.0249431
-0.0184854
-0.0201511
-0.0161287
-0.0117745
-0.0130565
-0.00793851
-0.00759223
-0.00841636
-0.00458634
-0.00638424
-0.00351224
-0.00357923
-0.00623956
-0.00817728
-0.0105682
-0.010568
-0.00773379
-0.0135599
-0.0100991
-0.0171699
-0.0124219
-0.0214817
-0.015828
-0.0265318
-0.0189698
-0.0323208
-0.0235319
-0.0389439
-0.0275157
-0.0460584
-0.0331532
-0.0544504
-0.0378776
-0.0611358
-0.044662
-0.0736861
-0.0598623
-0.0736861
-0.0491277
-0.0708007
-0.0456837
-0.0658142
-0.0378641
-0.0559649
-0.0328367
-0.0477984
-0.0276752
-0.0403097
-0.0232191
-0.0334441
-0.0190855
-0.0274093
-0.0155822
-0.0222138
-0.0124831
-0.0176924
-0.00992977
-0.014008
-0.00774994
-0.0108557
-0.00602036
-0.00612871
-0.00784051
-0.00466034
-0.00282321
-0.00205692
-0.00192963
-0.00231491
-0.00357297
-0.00593371
-0.00982812
-0.0156804
-0.0238277
-0.0343771
-0.046932
-0.0587599
-0.0679447
-0.0667996
-0.0667996
-0.0618135
-0.0723764
-0.0572601
-0.0498759
-0.0700404
-0.0490707
-0.0581546
-0.0529983
-0.0543237
-0.0527795
-0.0446618
-0.0611349
-0.0378771
-0.0544504
-0.0444353
-0.045785
-0.0331529
-0.0275152
-0.0389441
-0.0460572
-0.0331537
-0.0406732
-0.0289119
-0.0235318
-0.03232
-0.0189696
-0.0265324
-0.0221437
-0.0229261
-0.0150596
-0.00940328
-0.00773369
-0.0135594
-0.0171703
-0.0214811
-0.0158275
-0.0194894
-0.0124702
-0.00988295
-0.00588691
-0.00344956
-0.00330316
-0.00269715
-0.00482359
-0.0032054
-0.0048236
-0.00357922
-0.00623954
-0.00460855
-0.00817761
-0.00612877
-0.00759227
-0.00561677
-0.00460842
-0.00540722
-0.00444358
-0.00255261
-0.00274749
-0.0021113
-0.00376783
-0.00213184
-0.00303547
-0.00165782
-0.00192606
-0.00212107
-0.00172823
-0.00140814
-0.00163858
-0.00171047
-0.00227795
-0.00176586
-0.00164832
-0.00193705
-0.00175904
-0.00175189
-0.00184926
-0.00162228
-0.00189982
-0.00177164
-0.00181857
-0.00177163
-0.00162435
-0.00255034
-0.00189985
-0.00192082
-0.00193706
-0.00153387
-0.00164831
-0.00176585
-0.0019234
-0.00174457
-0.00161948
-0.00190523
-0.00185038
-0.00175727
-0.00189226
-0.00146386
-0.00195372
-0.00195246
-0.00267245
-0.00177725
-0.00206524
-0.00246701
-0.00249683
-0.00210468
-0.00344594
-0.00588045
-0.00987617
-0.015839
-0.0158468
-0.0241313
-0.034866
-0.048027
-0.072779
-0.0671125
-0.101762
-0.0603265
-0.0675463
-0.0930893
-0.0775925
-0.0775906
-0.0930897
-0.0987518
-0.0598523
-0.0792792
-0.0775771
-0.079151
-0.0503532
-0.0643047
-0.0726488
-0.0785594
-0.107982
-0.0787641
-0.0913653
-0.0756929
-0.085035
-0.0779845
-0.0801856
-0.0804822
-0.0861927
-0.103221
-0.0804848
-0.0987519
-0.0792806
-0.0598516
-0.0529242
-0.0791507
-0.064304
-0.0503529
-0.0511391
-0.0797898
-0.0663279
-0.076809
-0.108893
-0.0772166
-0.0858553
-0.0798304
-0.0801857
-0.0810384
-0.0811247
-0.0529238
-0.0786626
-0.0788922
-0.0852751
-0.079832
-0.0777497
-0.0858552
-0.0768824
-0.0799621
-0.0495259
-0.0757681
-0.0559646
-0.0529827
-0.0563922
-0.050049
-0.035954
-0.0422096
-0.0437918
-0.0433912
-0.0510773
-0.0505222
-0.0387351
-0.0437348
-0.0336994
-0.0423425
-0.0359022
-0.0245801
-0.0296867
-0.0197871
-0.0125328
-0.00754129
-0.00755187
-0.0099134
-0.00931495
-0.00790718
-0.00731467
-0.00544336
-0.00764497
-0.00995318
-0.00920682
-0.0127426
-0.0123076
-0.00975429
-0.00917781
-0.0158739
-0.014863
-0.0202745
-0.0197125
-0.0148325
-0.024544
-0.0227834
-0.0306472
-0.0300206
-0.022746
-0.0359851
-0.0331491
-0.0438595
-0.0433958
-0.0331037
-0.0443267
-0.0501794
-0.0704763
-0.0700866
-0.0623247
-0.0562181
-0.0503697
-0.0598284
-0.0506353
-0.0504145
-0.0361444
-0.0247706
-0.0161389
-0.00999049
-0.00590553
-0.00579035
-0.00759665
-0.00712217
-0.00757596
-0.00560189
-0.00757631
-0.00988716
-0.00944472
-0.0126534
-0.012653
-0.00988747
-0.00921554
-0.00549098
-0.00322196
-0.0026985
-0.00246585
-0.00250555
-0.00236078
-0.00193045
-0.002361
-0.00341365
-0.00327634
-0.00442124
-0.00442085
-0.00341392
-0.0026994
-0.00310964
-0.00192109
-0.00192095
-0.0016169
-0.00179324
-0.00310974
-0.00242841
-0.00157374
-0.00212057
-0.00322743
-0.00315667
-0.00420695
-0.00448334
-0.00333094
-0.00250558
-0.00269851
-0.00263551
-0.0032384
-0.00263271
-0.00340513
-0.00316416
-0.00435125
-0.00414007
-0.00578338
-0.00553873
-0.0075253
-0.00711354
-0.00985303
-0.00996644
-0.00917821
-0.0123082
-0.0127425
-0.00920729
-0.00975438
-0.00731511
-0.00764482
-0.0054436
-0.00573488
-0.0054115
-0.00758023
-0.00583776
-0.00578034
-0.00435453
-0.00413139
-0.0043921
-0.00311359
-0.003316
-0.00329542
-0.00319256
-0.00437234
-0.00328757
-0.00332516
-0.0022706
-0.00247492
-0.00226228
-0.00150998
-0.00225226
-0.00246582
-0.00228889
-0.00140694
-0.00160772
-0.00165673
-0.00279174
-0.00254723
-0.00254909
-0.00259103
-0.00219508
-0.00205695
-0.00282325
-0.0046604
-0.00342215
-0.00586467
-0.00784064
-0.0128085
-0.00985203
-0.0158162
-0.0199703
-0.0199701
-0.0128082
-0.0100989
-0.02957
-0.0295703
-0.0241332
-0.0349865
-0.0414885
-0.0414872
-0.0541778
-0.0541785
-0.0480783
-0.0618142
-0.0723841
-0.05726
-0.0608211
-0.0459506
-0.0588538
-0.0529984
-0.057695
-0.0503696
-0.0747375
-0.0756356
-0.0455962
-0.0330452
-0.0228613
-0.0150079
-0.0093547
-0.00556511
-0.0045864
-0.00610292
-0.00549913
-0.00753297
-0.00712934
-0.00987647
-0.00938835
-0.0126169
-0.0117536
-0.0160499
-0.0162596
-0.0148329
-0.0197128
-0.0202742
-0.0148633
-0.0158738
-0.0162416
-0.0117616
-0.0160923
-0.0152211
-0.0201509
-0.0201508
-0.0160925
-0.0117617
-0.0162411
-0.0125697
-0.0100574
-0.0059723
-0.00352165
-0.00228353
-0.00269967
-0.00222704
-0.00173231
-0.00127302
-0.00205394
-0.00224548
-0.00171529
-0.00206848
-0.00195237
-0.00172686
-0.00255955
-0.0015304
-0.00163759
-0.00267231
-0.00149565
-0.00164737
-0.00217372
-0.00228054
-0.00229133
-0.00227689
-0.00152073
-0.00160603
-0.00280085
-0.00165769
-0.00156479
-0.00144294
-0.00236842
-0.00152847
-0.00262042
-0.00162774
-0.00148948
-0.00217788
-0.00336201
-0.00339481
-0.00449974
-0.00461754
-0.00436354
-0.00582391
-0.00582471
-0.00591131
-0.00778747
-0.00797978
-0.010416
-0.00931494
-0.0126347
-0.0117745
-0.016129
-0.0161073
-0.01516
-0.0201259
-0.0184641
-0.0248199
-0.0252068
-0.0202255
-0.0197872
-0.019779
-0.0201515
-0.0184857
-0.0200901
-0.0148452
-0.00924885
-0.00550068
-0.00320244
-0.0046332
-0.00793853
-0.0130565
-0.0124702
-0.0194895
-0.020421
-0.020421
-0.0302985
-0.0275336
-0.0364981
-0.0333984
-0.0425447
-0.038728
-0.0507343
-0.0459501
-0.0437946
-0.0311796
-0.0209967
-0.0134134
-0.00814948
-0.00475283
-0.00414756
-0.00582752
-0.00582715
-0.00582685
-0.00582797
-0.00414751
-0.00475286
-0.00814952
-0.00712227
-0.0099536
-0.00759698
-0.0044442
-0.00342853
-0.00590563
-0.00999085
-0.0125699
-0.0131308
-0.00790744
-0.00754163
-0.00755214
-0.00991356
-0.00991085
-0.01004
-0.0128945
-0.0133479
-0.0169766
-0.0150308
-0.0212466
-0.026277
-0.0230068
-0.0321016
-0.0385967
-0.0333993
-0.0437926
-0.0387281
-0.0507348
-0.0538654
-0.0378644
-0.0459652
-0.0276754
-0.042923
-0.0302765
-0.0202761
-0.0162345
-0.0160332
-0.0245816
-0.0249139
-0.0357892
-0.036361
-0.0498778
-0.0508557
-0.0700434
-0.0490708
-0.0631831
-0.0897107
-0.0756929
-0.0787634
-0.107981
-0.0785598
-0.072649
-0.0923799
-0.0581557
-0.0562186
-0.0577571
-0.0449998
-0.0327017
-0.0226208
-0.0241188
-0.0348331
-0.0425448
-0.0406732
-0.028912
-0.0302986
-0.0311797
-0.0225298
-0.0147852
-0.0209968
-0.0134135
-0.0184765
-0.0251728
-0.0248943
-0.0232978
-0.0304876
-0.0304874
-0.0248944
-0.0184763
-0.0251724
-0.0198197
-0.0207225
-0.0159829
-0.0131306
-0.00985782
-0.0310866
-0.0246055
-0.0297255
-0.0370322
-0.0365163
-0.027541
-0.0325759
-0.0448417
-0.0746056
-0.0716721
-0.0538432
-0.075051
-0.0543238
-0.0527797
-0.0786631
-0.0558908
-0.0811242
-0.0788923
-0.0852747
-0.0850342
-0.0775791
-0.0913654
-0.0779853
-0.0777506
-0.0814469
-0.0781743
-0.0573191
-0.0563734
-0.0503445
-0.0423766
-0.0387527
-0.056373
-0.0705056
-0.0733358
-0.0609054
-0.0702086
-0.064446
-0.0623837
-0.0529316
-0.0362173
-0.0248685
-0.0162218
-0.0198199
-0.0161393
-0.0247702
-0.0297256
-0.0275412
-0.0310868
-0.0207228
-0.0159959
-0.00987283
-0.00579821
-0.00335171
-0.00336768
-0.00582404
-0.00992127
-0.0125415
-0.0126156
-0.0160737
-0.024675
-0.0296325
-0.0364982
-0.0422103
-0.042342
-0.0296876
-0.0245804
-0.0359026
-0.0359554
-0.0500506
-0.0700886
-0.0563916
-0.0501811
-0.0704766
-0.0598291
-0.0443268
-0.0423772
-0.0361446
-0.0360383
-0.050636
-0.0246074
-0.0125331
-0.0126939
-0.00435659
-0.004564
-0.00265395
-0.00332912
-0.0057908
-0.00985853
-0.0159856
-0.0437946
-0.0360343
-0.0190858
-0.0124833
-0.0077502
-0.00753788
-0.00444409
-0.00573487
-0.00541133
-0.00161947
-0.00174459
-0.00192341
-0.00189228
-0.00179088
-0.00175735
-0.00185042
-0.00190525
-0.00162428
-0.00195371
-0.00146373
-0.00191153
-0.00203085
-0.00161683
-0.00179329
-0.00177159
-0.00205308
-0.0197782
-0.0249207
-0.0230067
-0.0462468
-0.051139
-0.0750509
-0.0768788
-0.0014106
-0.0013646
-0.012422
-0.0145043
-0.00904104
-0.0321389
-0.0150303
-0.0232148
-0.00549899
-0.00938817
-0.00144298
-0.00150998
-0.00140684
-0.0779467
-0.0903432
-0.0768304
-0.0775177
-0.0768291
-0.0581667
-0.0609063
0.00217386
0.00222737
0.00342841
0.00315656
0.00322742
0.00333065
0.00448358
0.00420658
0.0031134
0.00331598
0.00228892
0.00140685
0.00163771
0.00153059
0.00160778
0.00165679
0.00156484
0.00165775
0.00160609
0.00152085
0.00162783
0.00148973
0.00171052
0.00152845
0.00227793
0.00163863
0.00140816
0.00176583
0.0017282
0.00136468
0.00172818
0.00140813
0.00163861
0.00171053
0.00227794
0.00152846
0.0023684
0.00262038
0.00148967
0.00162782
0.00152085
0.0016061
0.00165774
0.00280088
0.00226223
0.0022522
0.00228885
0.00279167
0.0016568
0.00160776
0.00153057
0.00163769
0.00149586
0.00267232
0.00164743
0.00179326
0.0031097
0.00236099
0.00193041
0.00192107
0.0031096
0.00179328
0.00164736
0.00267244
0.00212051
0.00157378
0.00242829
0.0025056
0.00341396
0.00341363
0.00327632
0.0044208
0.00414752
0.0058275
0.00544341
0.00573484
0.00583772
0.00541126
0.00757983
0.00752497
0.00578023
0.00413126
0.00435443
0.00439186
0.00302844
0.00520511
0.00875492
0.0140608
0.0214479
0.0310676
0.0430302
0.0781742
0.0786922
0.0632312
0.0779825
0.0733415
0.0772161
0.108894
0.0768093
0.0785593
0.107983
0.078763
0.0756929
0.0913652
0.079279
0.0775773
0.0529237
0.0786625
0.059852
0.0987517
0.0930891
0.0775925
0.103222
0.07759
0.0930894
0.0987511
0.0792797
0.0775773
0.0756929
0.0913653
0.078763
0.107981
0.0785592
0.0768095
0.0663267
0.0661811
0.063231
0.0733416
0.0772161
0.0779827
0.107568
0.0777611
0.0903436
0.0777059
0.107567
0.0779527
0.0767083
0.0734105
0.0661148
0.0661149
0.0767086
0.0779531
0.107566
0.0777083
0.090343
0.0779466
0.0777587
0.107569
0.0609702
0.0649545
0.0930385
0.0581659
0.0650131
0.0609055
0.0628614
0.0644458
0.0623832
0.0644459
0.0501272
0.0573193
0.0573195
0.0923172
0.0628611
0.0609047
0.0650131
0.0581675
0.0649555
0.0609698
0.0627753
0.0645245
0.0623223
0.0643784
0.0626946
0.0601629
0.0638736
0.0575386
0.0656676
0.0897098
0.063183
0.0608201
0.0538648
0.0459653
0.0385959
0.0321016
0.0262769
0.0212467
0.0169764
0.0133478
0.0104159
0.0079797
0.00610289
0.00461753
0.00340508
0.00332516
0.0032875
0.00329541
0.00331592
0.00322738
0.0031566
0.00333092
0.00242834
0.00157378
0.00212052
0.00140693
0.00244267
0.00302848
0.00520519
0.00875501
0.0140609
0.021448
0.0310676
0.0430303
0.0781741
0.0786922
0.0495258
0.0518369
0.075768
0.0545408
0.0545404
0.051837
0.0495257
0.075768
0.0518056
0.0661804
0.0663271
0.0726488
0.0643036
0.0791506
0.0503529
0.051139
0.0797896
0.0747373
0.0756355
0.0727788
0.0756354
0.0791505
0.0529235
0.05589
0.0786624
0.0603264
0.0603264
0.0558899
0.0806181
0.053417
0.0538429
0.0538427
0.0750508
0.0534165
0.0788919
0.0810389
0.080185
0.077984
0.0850349
0.0804825
0.086193
0.101761
0.0671122
0.049127
0.0780378
0.063772
0.0571685
0.0686357
0.0631761
0.0736853
0.0611349
0.0611345
0.0378774
0.0559647
0.032836
0.0477983
0.0403097
0.023219
0.0334438
0.0274093
0.0155823
0.0222137
0.0176927
0.00992977
0.0140078
0.0108559
0.00602036
0.00841633
0.00638427
0.00351215
0.00487314
0.00376774
0.00211125
0.00274745
0.00165784
0.00192599
0.001926
0.00176581
0.00164834
0.00163283
0.00154156
0.00207991
0.00150192
0.00150192
0.00151561
0.00210464
0.0015245
0.00152449
0.00148388
0.0020652
0.00163355
0.0016336
0.00157612
0.00219286
0.00186206
0.00186292
0.0020539
0.00224556
0.00171541
0.00206872
0.00172704
0.00255977
0.00173175
0.00164794
0.00197161
0.00146374
0.00195373
0.00195247
0.00185045
0.0019053
0.00169876
0.00255069
0.00169963
0.00171932
0.00201709
0.0014106
0.00172743
0.00192024
0.00244847
0.00244034
0.00323838
0.00556505
0.00935464
0.0150078
0.0228611
0.033045
0.0455958
0.0459503
0.0588538
0.0577564
0.0583258
0.0585544
0.0519671
0.0437321
0.0371098
0.0305725
0.0252066
0.0202252
0.0162594
0.0126938
0.00996628
0.00758012
0.00583769
0.00439205
0.00311351
0.00420677
0.00448327
0.00442123
0.00582681
0.00560177
0.00582721
0.00757581
0.00764491
0.00731466
0.00975427
0.0099532
0.00920681
0.0123076
0.00917773
0.00996631
0.00711341
0.00985285
0.00987637
0.00938801
0.0126151
0.012634
0.00991344
0.00712903
0.00753757
0.0055386
0.00578331
0.00437222
0.00319245
0.0032954
0.0024658
0.00225216
0.00279168
0.00192034
0.00173172
0.00255974
0.00172693
0.00206853
0.0017151
0.00224574
0.00205301
0.00177165
0.00157614
0.00161692
0.0019115
0.00146386
0.00136307
0.00197163
0.00195372
0.00164789
0.00172747
0.00141062
0.00244665
0.00148387
0.002467
0.00322195
0.00549093
0.00921551
0.0147851
0.0225298
0.0325758
0.0448415
0.0746055
0.0796772
0.0794931
0.0786653
0.0768803
0.0858544
0.0777518
0.108892
0.0852741
0.0643049
0.050353
0.0511386
0.0750507
0.0543237
0.0529981
0.057695
0.0570554
0.0595779
0.0591758
0.0481695
0.0594214
0.0587289
0.0457021
0.0518001
0.0500244
0.0573876
0.0456632
0.0501794
0.0704765
0.0700876
0.0700435
0.0723843
0.0618139
0.0480783
0.0508586
0.05726
0.0498781
0.0357873
0.0363587
0.0349877
0.024133
0.0249127
0.030277
0.0429215
0.0422094
0.0507347
0.0510762
0.0433914
0.0437345
0.0387349
0.0505222
0.0462474
0.0449995
0.0747372
0.0797893
0.0518057
0.079962
0.0798322
0.0788919
0.0811248
0.0598516
0.067544
0.067016
0.0667982
0.0679439
0.0587597
0.0469317
0.0343768
0.0238279
0.0156805
0.00982829
0.00593367
0.00357295
0.00231485
0.00192959
0.00205689
0.00205689
0.00219506
0.0034222
0.0058645
0.00985182
0.015816
0.0162338
0.0202764
0.0245814
0.016033
0.00991076
0.0100396
0.0128944
0.0125411
0.0161289
0.016107
0.0126155
0.0126166
0.0117535
0.0160497
0.0201256
0.0184641
0.0248196
0.0304822
0.0275215
0.0363689
0.0336992
0.0366408
0.0303525
0.0275344
0.0364984
0.0437912
0.038728
0.0425446
0.0327014
0.0226206
0.0232149
0.0249431
0.0200898
0.0184854
0.0249211
0.0305124
0.023007
0.0296321
0.0359546
0.0500493
0.0562176
0.058155
0.0923793
0.0726488
0.0490707
0.0563916
0.092312
0.0598287
0.0733344
0.0705059
0.0504151
0.0506417
0.0443253
0.0423414
0.035902
0.0245801
0.0246745
0.0160734
0.00992111
0.00582389
0.0058246
0.00591082
0.00778746
0.00755188
0.00991345
0.00987636
0.00753773
0.00752509
0.00711344
0.00985299
0.00938818
0.00924875
0.0148451
0.0151598
0.0130564
0.0117743
0.0126344
0.00931492
0.0124702
0.017693
0.0124833
0.0222137
0.0155825
0.02741
0.0190855
0.033444
0.0232196
0.0403107
0.0276753
0.0477981
0.0328367
0.0559653
0.0378643
0.0658136
0.0456837
0.0708005
0.0496859
0.0446619
0.0527794
0.0527794
0.0708005
0.0456836
0.0658137
0.0446618
0.073686
0.049127
0.0631762
0.0598619
0.068636
0.0571686
0.0637722
0.065668
0.078038
0.0670157
0.0675458
0.0811246
0.0804834
0.0801865
0.0850343
0.0779821
0.0852739
0.0798303
0.081447
0.0807197
0.0716719
0.0479394
0.0480267
0.0457849
0.0378775
0.0544496
0.0460581
0.0389436
0.032321
0.0323201
0.0189701
0.0265322
0.0158276
0.0214813
0.012422
0.0171701
0.010099
0.0135596
0.00773366
0.0105682
0.0061288
0.00817733
0.0046085
0.00623952
0.0035791
0.0048235
0.00269718
0.00362279
0.00213176
0.00303542
0.00212105
0.00303543
0.00165782
0.00274744
0.00211125
0.00376782
0.00263274
0.00487318
0.00351224
0.00638435
0.00458639
0.00841641
0.00602036
0.010856
0.00775005
0.014008
0.00992991
0.0100991
0.0135597
0.00904113
0.0105681
0.00817754
0.00623943
0.00482361
0.00320543
0.00362282
0.0021318
0.00255259
0.00444356
0.00357918
0.00466032
0.00784069
0.0128086
0.0199707
0.0295707
0.0414879
0.0541778
0.0541774
0.0667993
0.0618141
0.0480774
0.0414874
0.0544504
0.0331532
0.0460572
0.0275149
0.0389442
0.0235318
0.0289118
0.0331528
0.0275152
0.0321388
0.0229261
0.01897
0.0265318
0.0214818
0.0171699
0.012422
0.0150596
0.0145045
0.00940328
0.00773372
0.00561677
0.00460852
0.00540708
0.00330316
0.00269714
0.00226599
0.00259411
0.00163282
0.00164833
0.00209784
0.00171824
0.00171815
0.00209782
0.00226686
0.00153389
0.00177377
0.00196891
0.00197451
0.0013716
0.00165871
0.00191587
0.00172201
0.00256341
0.00174381
0.00209378
0.00192498
0.00184929
0.00162235
0.00175194
0.00175909
0.00183404
0.00234631
0.00175913
0.00226695
0.00177389
0.00153389
0.00142147
0.00197451
0.00165873
0.00137163
0.00140714
0.0020171
0.00171933
0.00169958
0.00255057
0.00169878
0.00190529
0.00177162
0.00175189
0.00178573
0.00193705
0.00142143
0.0025107
0.0019208
0.00189988
0.00177161
0.00162442
0.00181853
0.00192079
0.00193704
0.00154156
0.00251072
0.00255259
0.00344955
0.00588688
0.00988292
0.0158468
0.0241312
0.034866
0.040673
0.0331538
0.040673
0.0455959
0.0378645
0.0608197
0.04595
0.0507343
0.0387279
0.0433908
0.0336992
0.0363685
0.0275209
0.0304821
0.0305722
0.0227459
0.0245437
0.0251724
0.0227833
0.0300201
0.0359848
0.037032
0.0331487
0.0433952
0.033103
0.0371097
0.0437323
0.043734
0.0505223
0.0387354
0.0519664
0.0456637
0.0500239
0.0518
0.0457017
0.0573877
0.0585547
0.0583252
0.0462472
0.0510765
0.057756
0.0588533
0.0581551
0.0529982
0.0576949
0.0503694
0.0570557
0.0529827
0.0595776
0.0480731
0.0591758
0.0594219
0.0481687
0.0705057
0.0702082
0.0563733
0.0529316
0.0580729
0.0463672
0.0507845
0.0507848
0.038752
0.0438589
0.0331484
0.0370322
0.0359851
0.0433949
0.0331035
0.0300204
0.0227836
0.0251726
0.0245438
0.0227463
0.0197127
0.0148634
0.0162414
0.0158736
0.0148327
0.0159956
0.00987259
0.00579805
0.00335159
0.00336768
0.00336193
0.00339481
0.00449978
0.00436346
0.0058239
0.00578333
0.00437234
0.00435442
0.00413122
0.00578034
0.00553861
0.00550061
0.00320242
0.00319246
0.00263549
0.00247492
0.00227054
0.00144298
0.00227687
0.00217788
0.00259094
0.00254899
0.00229132
0.00156493
0.00150998
0.00254716
0.00435638
0.00754142
0.0125329
0.019787
0.0296869
0.0310871
0.036038
0.0361446
0.0247692
0.0246052
0.0207227
0.0198193
0.0297252
0.0306467
0.0304871
0.0232979
0.0248941
0.0248942
0.0184762
0.0201508
0.0152207
0.0160922
0.0160921
0.0117615
0.0127423
0.00920701
0.00995352
0.00975428
0.0123081
0.00917792
0.0131307
0.0159845
0.016139
0.00999056
0.00985619
0.00790731
0.00759674
0.00764468
0.00544349
0.00582787
0.00573479
0.00731491
0.00541139
0.00456382
0.0057906
0.00590563
0.00342842
0.00332875
0.00265388
0.0022805
0.00217379
0.00222706
0.00173237
0.00127303
0.00150766
0.00142473
0.00151517
0.00127197
0.00173346
0.00161683
0.00202806
0.00228349
0.00352166
0.00444422
0.00414745
0.00475281
0.00463317
0.0041401
0.00435118
0.00316412
0.00793849
0.00712919
0.00753283
0.00549895
0.00759223
0.00612875
0.00759221
0.0124701
0.0194894
0.022861
0.0330448
0.0276751
0.045964
0.0333984
0.0364978
0.0275339
0.0303519
0.0232146
0.0248193
0.0184638
0.0201252
0.0202247
0.0148325
0.0158736
0.0162411
0.0148629
0.0197124
0.0202741
0.0184762
0.0201506
0.0198195
0.0248681
0.036217
0.0503443
0.0423757
0.0423768
0.0563721
0.0529316
0.0587283
0.0580734
0.0559646
0.0543237
0.0425446
0.0449996
0.0327014
0.034833
0.0302985
0.028912
0.0235318
0.0194894
0.0158278
0.0204209
0.0241187
0.0158389
0.0098761
0.00588039
0.00344593
0.00249683
0.00251395
0.00244035
0.00323837
0.00556504
0.00935459
0.0150077
0.0124831
0.021246
0.0150305
0.0161286
0.0117742
0.016107
0.0151595
0.0160496
0.0117535
0.0126164
0.0126934
0.0162593
0.0125324
0.0125406
0.0128937
0.015816
0.0241328
0.0349868
0.0295698
0.0199702
0.0128084
0.00784052
0.00985182
0.00586442
0.00466036
0.00282318
0.00342204
0.00219501
0.00217806
0.00259084
0.00340509
0.00316412
0.0033251
0.00247488
0.00226224
0.00150996
0.00244847
0.00320239
0.00550058
0.00924868
0.014845
0.0226206
0.0302984
0.0204209
0.0184853
0.0201507
0.0200893
0.0249429
0.0249207
0.0262768
0.0230062
0.0321006
0.0190855
0.0385962
0.0302754
0.0429207
0.0538646
0.057261
0.0631831
0.0490706
0.0638754
0.0575367
0.0897098
0.072378
0.0700399
0.0601624
0.0626949
0.0923792
0.0643782
0.0623247
0.0645257
0.0923121
0.0627756
0.0704759
0.0700863
0.0562188
0.0498759
0.0508578
0.0357868
0.0363595
0.02458
0.0249119
0.0202754
0.0197778
0.0296315
0.030512
0.0366407
0.0422089
0.0437913
0.0500482
0.0359537
0.0246738
0.016073
0.0160323
0.0162334
0.00991027
0.00931471
0.0104158
0.00797954
0.00549887
0.00582384
0.00414003
0.00435117
0.00461746
0.0026327
0.00610283
0.00458633
0.00449965
0.00778713
0.0100396
0.00755165
0.00753268
0.00582447
0.00591094
0.00336198
0.00339456
0.00227696
0.00144296
0.00236834
0.0026204
0.00192509
0.00174378
0.00256346
0.00172204
0.00191591
0.00280088
0.00227056
0.00254897
0.00328754
0.0043633
0.00435622
0.00754099
0.00992079
0.00582377
0.00336763
0.0022914
0.00254704
0.00335156
0.00579787
0.00987229
0.0159952
0.0245797
0.0359018
0.050179
0.0563924
0.0598291
0.0504141
0.0361436
0.0297255
0.036516
0.0365159
0.0338188
0.0436694
0.0438584
0.0387525
0.0437944
0.0437944
0.0559646
0.0529828
0.0311794
0.0275405
0.0311794
0.0275404
0.0306466
0.0304872
0.0209965
0.0209967
0.0134134
0.0134134
0.0130564
0.00793849
0.00463314
0.00444355
0.0026355
0.00244288
0.0015156
0.00269849
0.0047528
0.00814945
0.00814945
0.00712218
0.00988717
0.00944444
0.00988744
0.00712218
0.00759673
0.0100572
0.0125695
0.0126532
0.012653
0.0127425
0.0117615
0.0125697
0.0162215
0.0161388
0.0247698
0.0207224
0.0310861
0.0296862
0.0423412
0.0443252
0.0506406
0.0360373
0.0197864
0.0252065
0.0246069
0.0159853
0.0131302
0.00999034
0.00590547
0.00597228
0.00444409
0.00456369
0.00790722
0.00985722
0.00579045
0.00265391
0.00332869
0.00269942
0.00236074
0.00269961
0.00250557
0.00269848
0.00246578
0.00244664
0.00136307
0.00192337
0.00174457
0.00161938
0.00177722
0.00192338
0.00189225
0.00174455
0.00161923
0.00185045
0.00175721
0.00179085
0.00175741
0.00189227
0.00161696
0.00177102
0.00161691
0.00192091
0.0021563
0.00203092
0.00203318
0.00191153
0.00233733
0.0019526
0.00228058
0.00757623
0.00244267
0.0436696
0.0733343
0.00189988
0.00184928
0.00196894
0.00209383
0.00162241
0.00162434
0.00774995
0.0133475
0.0169761
0.0496858
0.00282319
0.0923177
0.0734097
0.0629601
0.0761533
0.086232
0.0786656
0.0799619
0.0860086
0.0775176
0.0860083
0.0768306
0.0862317
0.0761533
0.0629604
0.0779463
0.0930382
0.108813
0.076829
0.0858547
0.0777529
0.0768807
0.0202741
0.0197784
0.0201511
0.0150307
0.00244286
0.00140713
0.0221436
0.0444363
0.056758
0.0333981
0.0503696
0.0480731
0.00149572
)
;

boundaryField
{
    face
    {
        type            calculated;
        value           nonuniform List<scalar> 
154
(
-0.08
-0.08
-0.08
-0.08
-0.08
-0.08
-0.08
-0.08
-0.08
-0.08
-0.08
-0.08
-0.08
-0.08
-0.08
-0.08
-0.08
-0.08
-0.08
-0.08
-0.08
-0.08
-0.08
-0.08
-0.08
-0.08
-0.08
-0.08
-0.08
-0.08
-0.08
-0.08
-0.08
-0.08
-0.08
-0.08