/*--------------------------------*- C++ -*----------------------------------*\
| =========                 |                                                 |
| \\      /  F ield         | OpenFOAM: The Open Source CFD Toolbox           |
|  \\    /   O peration     | Version:  2306                                  |
|   \\  /    A nd           | Website:  www.openfoam.com                      |
|    \\/     M anipulation  |                                                 |
\*---------------------------------------------------------------------------*/
FoamFile
{
    version     2.0;
    format      ascii;
    arch        "LSB;label=32;scalar=64";
    class       volScalarField;
    location    "1.6";
    object      gradTy;
}
// * * * * * * * * * * * * * * * * * * * * * * * * * * * * * * * * * * * * * //

dimensions      [0 -1 0 1 0 0 0];

internalField   nonuniform List<scalar> 
2658
(
0.00835641
0.00485245
0.00150697
-0.000151271
-0.0165339
0.02027
-0.0168125
0.0141677
-0.000182833
-0.0143792
0.00440561
-0.033998
0.0208968
0.0212437
0.017241
0.0176873
0.0193515
0.017416
0.0176462
0.0209788
0.0202357
0.0176866
0.00586985
-0.00390443
0.00644371
0.0193316
-0.00418846
0.00117277
0.0157686
-7.98835e-07
-0.0157688
0.00418855
-0.0193327
-0.00586973
-0.00644349
0.00390491
-0.0010199
0.00166294
-0.017692
-0.0202369
-0.0209804
-0.0176469
-0.0174147
0.00865274
-0.00117422
-0.000505074
-0.00440587
0.00900892
-0.0176904
-0.0172413
-0.0212422
-0.0208968
-0.018586
0.00382617
-0.0069367
-0.00645173
0.000457619
-0.0108711
-1.18427e-07
-0.000135493
-0.000457366
0.00645144
0.00693714
-0.00382668
0.00425112
-0.00989873
-0.0137435
-0.000642879
-0.0224538
0.0224539
2.07545e-07
0.0185311
-0.000222211
0.0148478
-1.68468e-05
-0.0112681
-0.0111549
0.000376441
0.0104623
0.00685742
-0.0074773
-0.000645078
0.00987592
0.01487
-0.000297695
-0.000158177
2.76152e-05
8.74635e-05
9.04345e-05
7.6609e-05
5.47798e-05
-0.000115821
5.957e-05
0.000310745
-0.000130156
-0.000344402
-5.13869e-05
-0.000337174
-5.63209e-05
-0.000123461
-0.000368409
-9.51703e-05
-0.000341256
-0.000170873
-0.000144619
0.00033629
-0.00011955
-7.97453e-06
4.72268e-05
-0.000347112
0.000115372
-0.00015571
-4.99788e-09
0.000155712
-0.000115396
0.000347105
0.000144626
-0.000336308
0.000341241
0.000170864
9.51217e-05
0.000368404
0.000123455
5.63138e-05
-0.000265858
-0.00025703
-0.000310766
0.000344437
5.14124e-05
0.00013018
0.000362005
8.89135e-05
0.000171984
0.000160127
0.000324613
-0.000149818
1.40161e-05
2.03048e-05
-0.00035158
0.000351668
-1.40437e-05
0.000149837
-8.70534e-05
-9.03311e-05
-8.29136e-07
9.00416e-05
1.65297e-07
1.96112e-07
-0.000181057
0.00017844
4.19834e-07
1.44883e-05
9.73057e-05
-0.000110216
0.000434855
9.93644e-05
0.000408774
0.000485418
0.000516039
0.000405246
0.000408113
0.000472986
0.000408277
0.000411431
0.000526921
0.000489826
0.000426348
0.000136072
-2.06011e-05
0.000112217
-0.000739132
0.00107145
-0.00131352
0.00180335
-0.0023049
0.00296548
-0.00383953
0.00465672
-0.00605618
0.00693576
-0.00908457
0.00979571
-0.0130788
0.0131411
0.0128844
0.0108066
0.0102685
0.0143798
0.0165334
0.000151091
-0.0202704
0.0137435
0.00989791
-0.00425127
0.0339975
-0.00420646
0.000297427
0.000158006
-2.76775e-05
-8.76044e-05
-9.05559e-05
-7.65927e-05
-5.47749e-05
0.000115825
-5.95428e-05
1.26029e-06
-0.000144256
5.83369e-05
-0.00018484
0.000184833
0.000144273
-1.2753e-06
-5.83591e-05
-5.35834e-05
0.000257053
0.000265849
-0.000348283
0.000302488
7.1066e-05
-5.94682e-06
-4.87732e-05
4.56569e-05
-3.3713e-05
-3.13497e-05
-1.36962e-09
3.13374e-05
-7.11397e-05
0.00011954
-0.000235114
8.00018e-06
-0.000258278
0.000258316
0.000235131
4.31861e-09
-0.000163588
-0.000180073
0.000180098
-5.59667e-05
0.00016361
-2.46847e-05
9.44724e-10
-0.000124607
-5.62788e-05
0.000164733
-4.25267e-05
1.63163e-08
1.17652e-08
-4.72728e-09
-0.000265239
0.000181988
0.000490565
-0.000122141
0.000388892
-0.000543911
0.000719396
-0.000849443
0.000849398
0.00011803
0.00109904
7.64536e-05
-0.00150911
0.00192444
4.66027e-05
-0.00254113
0.00325002
1.62064e-06
-0.00411407
0.00521134
-9.20685e-05
-0.00633469
0.00792625
-0.000329236
-0.00924639
0.0114726
-0.000963713
-0.0127873
0.0158103
-0.00278869
-0.0178415
-0.00837456
-0.0187957
0.0187959
-0.00117216
-0.00526626
0.00982453
0.00875991
-9.81931e-08
-0.00618913
0.00618917
0.00647822
-6.18939e-08
-0.00779951
0.00779949
0.00316829
-4.78859e-08
-0.0204349
0.0204346
-0.0128914
1.26923e-07
0.0128911
-0.0100661
0.00638922
0.0147235
0.0103045
0.0131872
-0.0198033
0.0139565
0.00182496
0.00118019
0.000163739
-0.0031684
-0.00115628
-0.00331934
-0.0113392
0.00627634
0.0177607
0.00759323
0.00843337
-0.00438124
9.34736e-08
0.00438148
0.00331934
-0.0139566
0.0198028
-0.0147248
-0.00639014
0.0100658
-0.00182536
-0.00118028
-0.00843254
-0.0075938
-0.0177604
-0.00627667
0.0113391
-0.0113238
-0.00433173
-0.0164318
-0.00383285
0.0106782
0.00256351
-0.00244127
0.0116022
-0.00236324
-0.00288546
-4.40418e-05
-0.000188018
-0.000275586
-0.000255921
-0.000201345
-0.000146234
-9.88873e-05
-0.000103484
-0.000692024
-0.000588233
-0.000528486
-0.00081354
0.00121614
-0.00148366
0.00206745
-0.00260945
0.00340273
-0.0043637
0.0053376
-0.00692947
0.00793374
-0.0104624
0.0111556
-0.0148703
0.000182282
-0.0141672
0.0168137
-0.0185315
0.0165905
-6.8422e-08
-0.0165903
0.0135765
-0.0122175
0.00991732
-0.00778674
0.0102942
9.9082e-05
0.0065973
0.000399429
-0.00793298
-0.000470223
-0.00525951
-0.00601248
0.000407184
0.0051959
0.00567677
-0.00672298
-0.000515101
0.00782099
0.000333216
-0.00838675
0.0109807
-0.000351127
-0.0102684
-0.000252334
0.000505122
-0.0090091
0.0113235
-0.0116026
0.00244104
0.000805403
-0.000144462
-9.53665e-08
9.88474e-05
-6.99102e-05
-0.000182062
-0.000188973
-0.000155603
-0.000115687
-7.75649e-05
3.37098e-05
-4.56582e-05
4.87592e-05
5.59341e-05
5.95787e-06
-0.000302513
0.000348288
-0.000216296
0.000203449
0.000124252
0.000106125
0.000245176
0.000177579
-5.14589e-05
-0.000607245
0.00112308
-8.47985e-06
-0.00143374
0.00114933
-0.000856428
-0.000102258
-4.336e-05
0.000246483
0.000248987
0.000247454
0.000157664
0.000184221
-1.60151e-05
5.8051e-05
0.000104035
-4.22512e-05
-0.000219056
-4.95587e-05
-7.88718e-05
-0.000153074
-0.000167116
6.35904e-05
6.80926e-05
9.10889e-05
0.00105458
0.000927906
-0.00108854
-0.000948659
0.000103225
0.000839526
-0.000114534
-2.41133e-05
-0.000207867
-0.00043472
-0.000438084
-0.000751275
-0.000336235
-0.000259279
-0.000408071
-0.000621516
9.12157e-06
5.00428e-05
0.000123114
0.00286166
0.00260137
-0.00326658
-0.00282393
0.000247365
0.002272
-0.00167828
0.000166545
0.00139847
-0.000167619
0.00158511
-0.00194134
0.000175966
0.00175214
-0.00124106
0.000110029
1.97226e-05
-5.78818e-05
-0.00109888
1.28813e-05
0.000888702
-0.000112934
-0.000664925
-0.00013952
-6.33543e-05
-2.11369e-05
2.75202e-05
8.7051e-05
0.000126961
0.00012216
-0.000222351
0.000106732
0.00015759
9.50515e-05
-6.53633e-06
3.32266e-05
7.4029e-05
8.52918e-05
-0.000220294
-0.000443828
-0.000768503
-0.000763595
-0.00128254
-0.00123055
-0.00205629
-0.00121005
-0.000625107
-0.00123562
-0.00284306
-0.000372189
-0.000100877
8.57243e-05
0.00672303
0.00601318
-0.00782065
-0.00685632
0.000470274
0.00525973
-0.00450912
0.000346569
0.00354005
-0.000331274
0.00406401
-0.00519555
0.000373858
0.00448973
-0.00358667
0.000263224
4.59119e-05
3.11819e-05
-9.2171e-05
-0.0019242
9.43194e-06
0.00150911
-7.64673e-05
-3.1901e-05
-0.0015047
0.00208169
-0.00258411
0.00258419
6.31404e-05
-0.00344575
5.19769e-05
0.00423656
3.36564e-05
-0.00543985
7.09395e-05
0.00658648
-5.91952e-05
-0.00813652
7.17449e-05
0.00970495
-0.000376252
-0.0114741
-3.06831e-05
0.0135621
-0.00156491
-0.0148454
-0.00123789
0.0171602
-3.2794e-07
-0.0171603
0.00837319
0.0178425
0.00278751
-0.0158096
-0.000173424
0.0127869
0.000963024
-0.011472
-4.77645e-05
0.00924753
0.000328569
-0.00792537
-2.10391e-05
0.00633546
9.13087e-05
-0.00521111
-5.62748e-06
0.00411432
-1.92812e-06
-0.00324979
3.87819e-06
0.00254128
-4.65501e-05
-3.7238e-05
-0.000147723
-9.02298e-05
-3.36303e-05
0.000131696
-7.23559e-08
-5.73153e-09
-1.83124e-07
1.87803e-08
1.77107e-07
3.5662e-07
7.60532e-07
2.79825e-06
8.85955e-07
-2.92485e-07
-9.86887e-07
0.00530319
-0.00530396
-0.00738093
-0.00716298
-0.00198767
-0.00389168
-0.0120544
0.0348981
-0.00295304
0.000375772
-9.59972e-05
-0.000265949
0.00123793
0.0148463
0.001564
-0.0135616
-1.20189e-07
-1.19685e-07
-1.35511e-07
0.000376065
-0.00970486
0.0114742
3.0629e-05
-0.000209889
-0.000211651
-7.19677e-05
0.00813668
5.89799e-05
-0.0065866
1.02872e-07
-1.20366e-08
-4.58381e-08
-6.17397e-08
-6.3424e-05
0.00344582
-0.00423651
0.0054402
-7.07859e-05
-0.000179298
-0.000134574
-5.7092e-08
-3.14928e-08
5.79031e-09
-6.29579e-09
-0.000118077
0.00122355
-1.39072e-08
-0.00122358
3.19351e-05
0.00150476
8.12311e-05
-0.00208176
3.7203e-05
9.2112e-05
1.68022e-08
-8.14049e-05
3.89216e-08
5.78621e-05
2.11337e-05
0.000664954
0.000112856
-0.000888693
6.33642e-05
-0.000719387
0.000265271
0.000543912
2.37148e-08
-0.000388874
0.000122182
-0.000490588
-0.000136082
-0.000181977
-1.80981e-05
-0.000107834
-5.7933e-05
4.25205e-05
0.000124593
-0.000164763
5.62942e-05
-0.000170708
0.000124737
-2.57269e-09
-0.000124741
-6.25519e-05
0.000337161
0.000170708
2.47042e-05
5.79524e-05
-4.72252e-05
0.00010785
1.80915e-05
2.53387e-05
-0.00011938
-5.20009e-05
0.000170444
0.000159471
-3.5624e-05
4.23814e-05
0.000239323
-0.000331179
0.0003291
-3.56475e-05
2.50755e-09
2.30114e-08
1.36524e-08
-3.95895e-09
5.65946e-09
-1.31972e-08
-4.85081e-09
1.86793e-08
-3.29604e-08
-2.5206e-08
1.06138e-07
9.33903e-08
-7.26495e-08
-1.19333e-07
7.13101e-09
-4.46456e-07
-0.00982503
0.00526652
-0.00451592
0.00750133
-0.00750154
0.00451567
-0.0149296
0.0015534
-0.00598586
0.013693
0.00346772
-0.000311582
0.0128067
-0.0112845
-0.00675616
-0.0175804
-0.00572738
-0.00860328
-0.0124035
-0.00713642
0.000720631
0.00623818
0.00192349
-1.6641e-06
2.70163e-07
-0.00192268
0.0149292
0.00598569
-0.00155378
0.00461361
-0.00346794
-0.0128073
0.000311241
0.00147762
-0.00256369
-0.0106784
0.003832
0.0164308
0.00433162
0.00747117
-0.00609991
-0.00623967
9.04493e-07
-0.0022481
-0.00461375
0.00038104
-0.000430408
-0.00725286
0.0060998
0.00124759
-0.0074712
-0.000154575
-0.000163931
0.00115604
-0.000805412
0.000144313
0.000252265
-0.00179745
-0.0042097
-0.00219517
-2.77351e-05
0.00962952
0.00838822
-0.0109809
-0.00987495
0.000645264
0.00747734
-0.000333307
-0.000104357
-0.00218764
-0.00128264
4.34099e-05
0.000101205
0.000106494
9.73511e-05
0.000107907
-0.00215762
-0.000210922
6.28995e-05
0.00197072
-5.51802e-05
-0.00251389
0.00329804
-8.58035e-05
-0.0042253
0.00326661
-0.00251528
-0.000216895
-0.00417649
-0.000109023
-0.00676403
0.00516766
-0.000307173
-0.0065969
-9.9263e-05
-0.010294
0.00778623
-0.000399657
-0.00991707
1.74426e-05
-0.0148485
0.0112672
-0.000377294
-0.000796333
-0.00411593
-0.0123728
-0.0123531
-0.0193569
-0.00175464
0.0319601
-0.00291416
-0.00308074
-0.00150689
-0.000683469
-0.000407412
-0.000251264
-0.000149741
-7.56071e-05
-5.87382e-05
5.4326e-05
2.0898e-05
0.00280157
1.05516e-07
-0.00280177
0.00366331
5.45068e-08
-0.00471359
0.00471353
-0.00366328
-2.80795e-08
-2.49158e-08
7.96501e-09
2.91591e-05
8.17701e-05
-8.97497e-06
0.000539178
1.87918e-07
-0.000539284
0.00119774
9.3711e-08
-0.00158667
0.00158652
-0.00119761
2.26348e-05
0.000142544
-0.000168526
0.000168548
-9.04429e-05
-4.35046e-05
-0.000142598
0.00060731
5.15641e-05
-0.000177675
0.000856696
8.54654e-06
-0.00114953
0.00143379
-0.00112298
8.90072e-06
-2.91518e-05
-2.75239e-05
9.88608e-05
-1.28205e-05
0.000739165
0.00010356
-0.00105454
-0.000109988
0.00108858
0.000167611
-0.00139837
-0.000166563
0.00167894
0.00260935
0.000217027
-0.00326677
0.0042249
8.59771e-05
0.00251577
-0.00197093
0.0025139
5.51848e-05
0.00145181
0.000151172
-0.00206719
0.00148367
0.000948967
-0.000839624
-0.000103191
-0.00121597
0.000102185
0.000813512
0.0005286
0.000114482
-0.000927851
0.000588263
0.000692106
-0.000203454
-8.70181e-05
-0.000124187
0.000955247
-0.000106141
-8.1771e-05
-0.000245108
0.000992526
-0.000405253
-0.000408176
0.000222389
-0.000122141
-0.000126971
-0.000103987
-0.000184235
-0.00013169
3.35978e-05
9.03535e-05
1.60553e-05
7.90632e-05
0.000147629
0.000222995
0.000153365
0.000259655
0.000310836
-0.000311308
-0.000223018
-5.19554e-05
-0.000372899
0.000372154
0.000408341
0.000625522
0.00033753
-0.000338539
-0.000391526
0.000392212
0.00123785
0.0073823
0.00716482
0.00199119
-0.0131407
-0.000382888
-0.012884
-0.000375857
0.00117409
-0.0319603
0.00236306
0.00288516
4.36108e-05
0.000187702
0.000275167
0.000255719
0.000201203
0.000146184
-9.37359e-06
0.00131368
0.000151876
-0.00175207
-0.000176071
0.00194134
0.000240523
-0.00227186
-0.000246898
0.00282484
0.00436388
0.000306906
-0.00516814
0.00676384
0.000109108
0.00417694
-0.005373
-3.7604e-05
0.00597671
-1.57087e-08
-0.00754273
0.00754259
-0.00597674
3.75356e-05
0.00537344
8.05975e-05
9.81409e-08
1.65162e-07
4.78327e-08
3.04797e-07
-2.27392e-05
-9.53704e-05
-0.00043538
0.000111317
6.50832e-05
-0.000324721
-0.000160242
-0.000172031
-0.000329175
-8.88961e-05
-0.000361982
-0.000515875
-0.000485353
3.54628e-05
-0.000408929
-9.94223e-05
-0.000157538
-0.000246386
-0.000248987
-0.000247447
-0.000526906
-0.000411446
0.00021628
-0.000408286
-0.000473203
0.00100794
-0.000112228
0.000139531
2.0551e-05
-0.000489847
-0.00042644
-0.000157513
4.23597e-05
-5.82512e-05
-6.79332e-05
-0.00107134
-9.09981e-05
0.00124133
0.000219093
5.12283e-05
-6.31666e-05
-0.00180319
0.00230526
0.000211098
-0.00286146
-0.000263134
0.00358725
0.00326659
0.00033121
-0.00354033
-0.000346617
0.00451014
0.00692913
-0.00533696
-0.000101021
-0.000126372
-0.00448911
-0.000373388
-0.00406345
0.000188857
0.000155463
0.000115601
7.75473e-05
-1.97294e-05
-3.11817e-05
-4.59015e-05
0.000134521
0.000179167
-6.62642e-05
6.60915e-05
9.54714e-05
0.000514849
-0.00858328
-0.000229663
0.000137595
0.000706436
-0.0124539
0.000382502
0.000200423
0.000128818
9.18481e-05
6.48484e-05
4.38983e-05
2.68744e-05
8.17421e-06
0.0019352
-0.00214076
0.00214091
-0.00193499
-8.26559e-06
-2.68465e-05
-4.3917e-05
-2.09951e-05
-0.00329783
-5.44005e-05
-3.3168e-05
6.76403e-06
7.5769e-05
0.00014987
-8.05692e-05
-3.756e-05
-6.26776e-05
-9.73005e-05
-0.00010776
0.0021579
0.000438461
0.000170256
-4.91849e-05
-0.00296514
0.00384003
0.000280255
-0.00465639
0.00605691
0.000326947
-0.00693494
0.00908481
0.000229367
-0.00963004
-0.000706981
0.0124544
0.0130793
0.000173382
-0.00979492
4.80905e-05
0.000372843
0.000102695
-7.85314e-06
0.00034032
0.000751823
0.00123141
0.000628689
0.00205637
0.00122152
0.00389235
0.00283827
0.0120542
-0.0348978
0.00101941
-0.00166131
0.0124027
0.00572676
0.0175805
0.00675618
0.0112843
-0.00865258
0.00295354
0.00175426
-0.0108061
-9.91362e-05
6.96837e-05
0.00018187
-1.14232e-07
-1.2737e-07
-0.000137718
0.000209771
0.000211446
-9.54779e-05
-0.000129042
-3.04587e-08
-3.91555e-08
-9.18786e-05
-6.49467e-05
-6.12913e-05
-0.00832048
0.00926155
-1.57584e-08
-0.0114799
0.0114797
-0.0092617
6.13395e-05
0.00832112
0.000110125
-3.52223e-05
-0.00033603
3.78269e-05
-0.000168014
-0.000246364
-0.000643936
0.000141361
0.0122177
-0.0135762
0.00010651
-1.01313e-07
-5.35483e-08
-4.72531e-08
-9.51253e-08
-0.0064786
0.00117189
9.58192e-05
0.000265599
-0.000380888
-0.00876084
0.0022482
0.000429889
0.00725243
0.0071357
-0.0136925
0.0086026
-0.000720889
-0.00124838
-2.96869e-07
0.00420624
0.010871
-0.000137047
8.24579e-07
0.00019191
0.000222219
0.000137281
-0.00485273
-0.0083571
-0.00829362
5.45937e-08
0.000135397
8.60408e-07
0.000642687
7.43901e-07
1.7198e-07
1.3017e-08
-0.000110178
0.000251669
0.00040757
-0.000141457
-0.000106872
0.000246515
3.54255e-05
0.000769014
0.00044402
0.000220559
4.33841e-05
2.41987e-05
0.000207982
0.000434889
-0.0001228
-0.00260111
0.000763778
0.00128285
-8.51821e-05
0.00858443
2.88291e-05
0.000104764
-4.27432e-05
0.00128349
0.00218937
0.00219611
0.0042112
0.012353
0.00179735
0.00411586
0.0123722
0.00291331
0.000796378
-0.000192449
0.000682954
0.00132798
0.00308122
0.000646031
-0.000106452
-0.00340202
-8.52562e-05
-7.40114e-05
-0.000106823
-3.31168e-05
5.89404e-05
0.000169224
0.000336213
-0.000200493
-0.00132595
2.1304e-05
5.72662e-06
-3.77313e-06
-0.00158494
3.31363e-05
-0.00145149
-0.000151208
5.1997e-05
0.000119389
-2.53379e-05
-4.23876e-05
-4.3966e-08
3.5632e-05
-0.00015948
-0.000170442
6.25673e-05
0.000331189
-0.000239338
-2.04353e-05
-9.7468e-05
9.02476e-05
4.35274e-05
8.72981e-05
-6.48406e-05
0.000126789
-0.00567521
-0.000327151
0.000351185
-0.0014779
-0.00117215
0.000154695
5.35701e-05
-9.4084e-09
-3.41114e-05
1.37446e-08
7.58139e-08
1.30494e-07
-0.000280362
-0.0004069
-0.000151838
-0.000240512
-0.0010079
-0.000955196
-0.000992453
-0.0131868
-0.0103046
0.00181173
-2.18379e-07
-0.00181192
0.0185864
0.00829265
-0.000157713
-9.50255e-05
6.5949e-06
8.43812e-06
0.00085635
-0.00112304
0.00143371
-0.00114942
0.000102254
0.000813408
-0.00024522
0.000992386
-0.000485435
-0.000516126
-0.000405313
-0.000408164
-0.000473034
-0.000408311
-0.000411474
-0.000526937
-0.00048988
-0.000426467
-0.000136149
0.000139506
-0.000182015
-0.000490594
0.000122106
-1.80718e-05
-0.00038889
1.58629e-08
0.000388874
-0.000122143
0.000490597
0.000136139
0.000182008
-0.000139516
0.000112251
-2.05096e-05
0.00042662
0.000489914
0.000526935
0.000411486
0.000408342
-0.000216232
0.000124259
0.000106156
0.000245157
-0.000222314
0.000408245
0.000405307
0.000516032
0.000485438
0.000409026
-3.53909e-05
9.95295e-05
4.35324e-05
0.000142654
0.000539346
-1.76263e-07
0.000168526
-0.000142565
-4.35571e-05
-9.94148e-05
3.55463e-05
-0.000177654
5.14326e-05
0.000607194
8.95347e-06
0.00119759
-0.00119768
-1.28638e-07
-0.00158655
-8.18046e-06
-0.00193498
5.51509e-05
0.0014515
0.00148348
0.000151231
-0.00206733
-0.00139853
0.000948715
-0.000103301
-0.000839604
-0.00121614
5.47808e-05
7.66202e-05
9.04955e-05
8.74553e-05
2.78883e-05
-0.000157851
-0.00029726
0.00420661
-0.00331905
-0.0113391
0.00627678
0.011324
0.00433191
0.0164311
0.00383248
0.00675655
0.0175812
0.00572735
0.012403
0.0086029
0.00598527
-0.0136932
0.0046135
-0.000381159
-0.00155361
0.0149295
-0.00451507
0.00750156
4.44281e-08
-0.00750206
0.00451533
-0.0149289
-0.00598521
0.0136932
-0.0124025
-0.00860265
-0.00572712
-0.0175808
-0.00675596
-0.00383227
0.0106787
0.0116021
0.0113391
-0.0113236
-0.0043316
-0.00627689
-0.0177609
-0.00759416
-0.0103047
-0.014725
-0.0063897
0.0100659
-0.0128916
-0.00182523
0.0204349
-0.0204348
0.0128916
-0.0100661
0.00638904
0.0147239
0.0103048
0.0131875
0.00759388
0.0177601
0.0212431
0.0208969
-0.00382664
0.0185864
0.00693713
0.00829259
0.00645145
-0.00013498
1.22801e-06
0.000135408
-1.58612e-07
0.0108713
-0.0108712
0.000457372
-0.00645165
-0.00829279
-0.00693761
-0.0185866
-0.0208974
-0.0212424
-0.017241
-0.017687
-0.0193511
-0.0174157
-0.0176462
-0.0209799
-0.0202353
-0.0176884
-0.00586828
0.00166249
-0.00101959
0.013141
-0.0130802
0.00979468
-0.00908468
0.00693573
-0.00605669
0.00465641
-0.00383998
0.0029655
-0.00230499
0.00180334
-0.00131365
0.00107135
-0.000739154
-0.000692023
-0.000588208
-0.000528515
-0.000813457
-0.000856553
-8.54511e-06
0.00112305
-0.000607252
-5.14944e-05
0.000177719
-0.000992403
0.000115851
-5.47639e-05
-7.6587e-05
-9.04221e-05
-8.7435e-05
-2.75913e-05
0.000157904
0.000297194
-0.00420658
0.00331895
0.00115612
0.00316828
-0.000805533
0.00779952
-0.00779942
-0.0031682
-0.00115608
0.000805609
0.00244125
-0.0116025
-0.0106783
0.0112844
-0.012807
-0.00346784
0.000311493
0.00147774
-0.00256345
0.00236333
0.00288543
3.82506e-08
-0.00288525
0.00346779
-0.00461345
0.00876015
0.000380699
0.00982448
-0.00982483
-0.00876047
-1.10776e-07
0.00618927
0.00647824
-0.00647846
0.00117192
-0.00618917
0.000429934
3.46297e-07
0.00623819
0.000720644
-0.0071356
0.00192342
-3.59882e-07
-5.09302e-07
1.33616e-08
0.00837385
-0.00644381
-0.0193317
0.00418811
-0.0157695
0.0187952
-0.0171598
0.0148454
-0.0148459
-0.00156447
-0.0127866
-0.000962991
0.0114718
-0.00924734
-0.000328146
0.00792533
-0.00633549
-9.09439e-05
0.00521082
-0.00411441
2.18813e-06
0.00324973
-0.00254131
4.66712e-05
0.00192422
-0.00150912
7.65093e-05
0.00109894
-0.000888781
0.000112863
0.00066488
0.000265206
0.000543814
-0.000543866
1.80509e-05
0.000107827
-0.000258263
-0.000235085
1.48831e-08
0.000163592
-0.000163587
-0.000180059
1.24172e-08
0.000184827
-0.000184828
-0.000144257
-1.02397e-08
0.000351559
-0.000351637
1.40579e-05
-1.42414e-07
-9.00508e-05
9.03496e-05
-6.50839e-05
0.000324747
0.000160262
0.000172084
8.89886e-05
0.000362071
0.000130213
-0.000310731
-5.95591e-05
0.00023936
-0.00033117
0.000329244
0.00015948
0.000170482
5.14813e-05
0.00033725
5.63814e-05
-0.000265816
-4.56541e-05
5.35881e-05
-0.000257031
0.000344469
3.37394e-05
3.13768e-05
-9.88579e-05
-0.000146216
-0.000201298
-0.000255786
-0.000275322
-0.00018783
-4.37229e-05
0.000383117
0.0128829
0.0108072
0.0102679
0.0143803
-0.0148704
0.011156
-0.0104627
0.00793394
-0.00692954
0.00533751
-0.00436427
0.00340244
-0.00260953
0.00206731
-0.0014837
0.00121608
-0.000102205
0.00114949
-0.00143379
0.0015867
-0.00214083
-3.3921e-08
0.00214069
-0.00280178
0.00251384
-0.00197097
0.00251552
-0.00329786
8.58484e-05
-0.00326694
0.00021714
0.00260914
-0.000166533
0.00167853
0.00194099
0.000240622
-0.0026013
-0.00286169
0.00215751
-0.000176093
-0.00158508
0.000167646
0.00108837
-0.000927943
0.000114546
0.00052846
-8.18427e-05
-0.000106167
0.000222277
-0.000344493
-0.000130196
-0.000362068
-8.89525e-05
-0.000172043
-0.000160189
-0.000324656
6.48278e-05
-8.73193e-05
-1.40177e-05
0.000149819
-2.03494e-05
-0.000239353
-1.32034e-06
5.95583e-05
0.000331167
0.00031074
0.000257017
-5.36151e-05
-5.83909e-05
0.000144272
-6.00602e-09
-1.09728e-08
-9.74097e-09
2.65059e-08
4.79951e-08
5.44114e-08
9.65113e-08
4.17258e-08
2.98291e-08
1.05767e-09
2.4776e-07
0.00438111
-0.00015469
-0.00747094
0.00124823
-0.0164304
-0.0072523
0.0128066
-0.000311516
-0.00147769
-0.0011721
-9.59656e-05
0.000375836
-0.00117445
-0.000504787
-0.00440603
-0.00425132
0.00989793
0.0137436
-0.0202703
0.000151043
0.0168133
-0.0141668
0.0165334
0.0001823
-0.0041152
-0.0123734
-0.0123522
-0.0120528
-0.00716592
-0.00738132
-0.00123785
-0.00284022
-0.00199081
-0.00389292
-0.00205534
-0.00122093
-0.000625548
-0.000408691
-0.000627614
-0.000102401
-0.000373006
-2.81686e-05
-0.0124539
-0.0109811
0.00838763
0.0074766
0.000645401
-0.00987475
0.000349954
9.89679e-05
-0.00236323
0.00256365
-0.00244128
-0.000163897
0.00609997
-0.000430364
-0.00224839
0.00155375
-0.0052665
-0.00117262
-0.00530325
1.23742e-07
2.98885e-07
9.14471e-07
3.2991e-07
-2.21624e-07
-2.83854e-07
-2.27405e-07
-4.29898e-07
-1.92824e-07
2.24228e-09
3.32027e-08
-0.000131713
0.000131705
0.000184213
-1.61614e-05
-7.90383e-05
-0.000153374
-0.000259745
-0.000340074
7.9584e-06
-0.00123047
-0.000751361
-0.000438249
-0.00016971
4.9315e-05
0.000123139
-0.00358717
-0.00326693
0.00260112
0.00227171
0.000247105
-0.00282436
0.00353968
0.000346552
-0.00450944
0.0052592
0.000470236
-0.0068562
-0.000333711
-0.00782132
0.00601313
0.000514996
-0.0085833
0.00962903
0.0007065
0.000137616
-6.97346e-05
-0.000181957
-0.00040735
-0.00519599
0.00406369
0.000373449
-0.00567579
0.00672316
-0.000327365
8.58717e-05
-0.00219488
-0.00421012
-0.0017538
-0.00295289
0.00865301
-0.0112842
0.0348975
-0.00179768
0.00900912
-0.00291347
-0.00835661
-0.00485282
-0.00150732
-0.00308099
-0.000795655
-0.000104057
-0.00218779
-0.00128232
-0.00128191
-0.000763009
-0.000434562
-0.000207799
-0.000218947
-5.09411e-05
6.31676e-05
0.000107919
-0.00215771
-0.00194135
0.0015851
0.00139833
0.000166485
-0.00167856
-0.000240642
-0.000155546
-0.000188824
-0.000331551
4.59387e-05
0.000263108
0.00286131
-0.000211143
-0.000134515
0.00411415
-6.03982e-06
-0.0052115
9.15424e-05
0.0063352
-2.11086e-05
-0.00792606
0.000329088
0.00924676
-4.79515e-05
-0.0114722
0.000963233
0.0127864
-0.000173776
-0.01581
0.00278834
0.0178414
0.00390474
0.00123763
-0.000265845
0.000265849
-0.017842
-0.00278767
0.0158097
-0.00123789
0.0171599
-0.00837364
-0.0187955
-8.92077e-08
0.0157687
-0.0041881
0.0193328
0.00586863
0.00644375
0.00117251
0.00526683
0.00224819
-0.00192365
-0.0062386
0.00713622
-0.000720782
0.00725247
-0.00609967
-3.55235e-07
7.55365e-08
-6.57853e-09
-3.72574e-08
2.77839e-08
6.17335e-08
0.0015651
-0.0135613
0.0114735
-0.00970497
0.00813683
-0.00813731
-5.9133e-05
0.00658673
7.10774e-05
-0.00543978
3.38871e-05
0.00423644
5.21908e-05
-0.00344578
6.33321e-05
0.00258418
3.72448e-05
-0.00208168
8.13438e-05
0.00150473
3.18889e-05
-0.00122364
0.000118052
0.000849368
6.32984e-05
-0.000719468
-1.22568e-08
0.000719411
-0.000265189
-0.000664923
-0.000112879
0.000888707
1.28402e-05
-0.00109899
-7.64702e-05
0.00150912
9.36899e-06
-0.00192439
-4.65991e-05
0.00254115
3.75069e-06
-0.0032501
-1.91633e-06
-5.22058e-05
0.00344566
1.56876e-08
-0.00258437
0.00208171
-0.00150479
0.00122362
-5.0603e-08
-0.000849411
-6.33466e-05
-2.11186e-05
-5.78781e-05
-3.19548e-05
-9.01999e-05
-0.000147752
-0.000223347
-0.000311548
-0.000372791
-0.000337954
-0.000391222
0.000391338
0.00530313
0.00738159
0.00123749
0.000336893
0.0135612
-3.07277e-05
-0.011474
-0.000376299
0.00970432
7.22526e-05
0.000211611
1.96181e-07
0.000376953
5.26946e-08
-5.20698e-08
5.95916e-05
-0.00658691
0.00543967
-0.00423666
-3.38585e-05
-3.72689e-08
-7.19925e-08
-2.19609e-08
-6.33518e-05
-2.07075e-08
-8.12655e-05
-3.55665e-08
6.48005e-09
-0.000117973
-1.30464e-08
1.17287e-08
0.000258266
-0.000107836
0.000115382
-0.000155733
0.000155711
-0.000115382
0.000347119
-4.72055e-05
0.000144645
-0.000336252
-7.11274e-05
5.97806e-06
-0.000302497
0.000348375
0.000123515
0.000368436
9.52095e-05
0.000170961
0.000341294
0.000164771
-5.62623e-05
-0.000124603
-4.25248e-05
3.42218e-08
-2.57786e-08
4.24837e-05
-0.000347155
-0.000144641
4.71675e-05
-0.000119585
7.10757e-05
0.000302479
-5.98604e-06
-4.87887e-05
4.56603e-05
0.000265834
-5.63626e-05
-0.000337198
-5.14758e-05
-0.000170478
0.000124738
0.000124602
-9.36174e-09
5.79551e-05
0.00011955
8.01149e-06
2.47028e-05
0.000170737
-0.000124732
-6.25516e-05
-3.50411e-09
-2.47006e-05
-5.79646e-05
0.000235111
-8.08003e-06
2.10991e-05
-1.49809e-08
1.44157e-08
1.88411e-08
7.55097e-08
-6.17492e-08
9.70127e-08
-0.000209644
3.10541e-05
0.000209852
4.40531e-05
0.000173403
-0.0131413
-0.000382562
0.012454
-0.000706748
-0.0083886
0.000332954
0.00685616
-0.000470001
-0.00526019
-0.00793376
0.000398978
0.00659672
-0.00832062
9.90045e-05
-0.00778726
0.00991644
-0.0122175
-1.69125e-05
-0.0112688
0.000377006
0.0104618
-0.0111551
-0.00747857
0.00987492
-0.000644838
0.0148698
-0.000181532
0.0141671
-0.0168124
-0.00015086
-0.0165343
-0.0143798
-0.0102688
-0.000350366
0.0109801
-0.0108067
-0.0128842
0.00295303
-0.000375907
0.00117423
-0.0319604
0.000505243
-0.000252145
0.00440563
-0.0339975
0.00425156
-0.0137436
-0.00989847
0.0048523
5.12622e-07
0.000137037
0.000642748
0.0224535
-1.06145e-08
0.0185307
-0.0185305
0.000222029
-0.0148488
1.72886e-05
0.0122183
-0.00991634
0.0112672
-0.000377035
0.00778619
-9.92153e-05
0.00832113
-0.00659647
-0.000399403
0.0051676
-0.00010934
0.0053734
-0.00417639
-0.000307366
-0.00076846
-0.000443691
-0.000220334
-4.33022e-05
-2.41492e-05
-4.23455e-05
5.82533e-05
6.79901e-05
9.10352e-05
-0.00124119
-0.00108866
0.00092788
0.000839514
0.000103181
-0.000948841
-0.000167737
-0.00011565
-7.755e-05
-0.00011447
2.75284e-05
8.70832e-05
0.000203513
-0.00100781
0.000247546
0.000157639
0.000103968
0.000127
0.000249068
0.000473285
-0.000955128
0.000122207
8.53608e-05
9.73828e-05
0.000106664
0.000101381
4.32946e-05
-0.000246561
-0.00132785
-0.000682649
-0.000407511
-0.000646237
-3.56538e-05
0.000110155
0.000141004
-0.0102946
0.0114799
3.70306e-08
0.00926162
-0.0092614
6.14048e-05
0.00754254
-3.12912e-08
0.00597702
-0.00597697
3.75858e-05
-0.0042251
-8.60577e-05
0.00329798
-0.00251555
0.00326649
-0.000217049
3.73165e-05
-0.000336373
-0.000251596
-0.000149857
-0.000169261
6.29357e-05
5.43627e-05
-0.002514
-5.52479e-05
0.00193505
-0.00145169
0.00197079
-0.000151153
7.40858e-05
-5.89207e-05
-7.56722e-05
-6.61127e-06
3.31534e-05
0.000106889
0.000246499
0.00015768
9.54602e-05
0.000435428
-0.000111294
0.000181049
-3.81068e-07
-0.000178427
0.000110194
-0.000434925
-9.02574e-05
-9.7279e-05
-2.76356e-07
-5.3218e-08
3.31257e-05
8.18434e-06
2.68578e-05
1.97463e-05
0.000109946
0.00105454
-0.000103509
3.11761e-05
0.000176141
0.00175202
-0.000151901
-9.2094e-05
-3.72386e-05
9.20502e-05
0.000134523
0.000179307
0.000275559
0.000188095
4.79664e-05
-0.00979581
0.00022934
0.0085828
-0.000515251
-0.00601333
0.000407512
0.00450928
-0.000346445
-0.00354062
-0.00533689
0.000307649
0.00417659
-0.00537316
0.000109262
-0.00516816
0.00676376
-6.14693e-05
-0.00754239
-0.000110004
-1.57107e-07
3.5111e-09
-6.49507e-07
0.000192417
-0.000191729
-0.000136689
-0.00064265
0.0202701
-0.0224536
-0.000144333
9.59483e-05
-0.000137515
-9.87326e-05
7.01527e-05
-2.25654e-08
9.55214e-05
-0.000211396
-7.20461e-05
-0.000179152
-7.09359e-05
6.61986e-05
6.68237e-08
1.44263e-08
1.49861e-09
-2.11833e-08
-1.77314e-08
2.12896e-09
3.88359e-09
-3.13782e-05
9.88779e-05
0.000146212
0.000201338
0.000255809
5.67885e-06
-0.00465667
0.000280461
0.0035868
-0.000263204
0.00326619
0.000331362
0.00282422
-0.000247133
-0.00227213
-0.00340236
0.00436353
-0.000106782
-0.000123343
-5.00966e-05
0.00025931
0.000408064
0.000624666
0.000372893
0.000311535
0.00022348
0.000147871
0.000153202
7.89534e-05
9.02523e-05
3.35324e-05
1.60196e-05
-0.000184282
-0.000157816
-0.000104079
0.000739104
0.000103529
0.000691974
-8.71131e-05
-0.00012427
0.000955144
-3.37356e-05
7.75724e-05
0.000115672
0.000155588
0.000188954
0.000182127
-9.54133e-05
-6.62194e-05
-0.00037366
-0.00448937
-0.00406376
0.00519536
0.00567547
0.00605624
0.000327217
-0.00693571
2.09399e-05
0.00908437
0.000100686
0.000372221
0.0130783
0.00198866
0.00101966
-0.0348985
0.0202365
0.0176914
-0.00166334
0.00716413
0.012053
0.0209806
0.0176468
-0.0086529
0.0174147
0.0193565
0.0176904
-0.00900903
0.0172414
0.0123719
0.0123537
0.00175409
0.00389141
0.00284406
0.00205549
0.00120983
0.00123019
0.000620705
-9.30098e-06
-0.000127258
-8.61212e-05
-0.00672375
0.00781957
2.77788e-05
-0.00963036
0.00420986
0.0021943