/*--------------------------------*- C++ -*----------------------------------*\
| =========                 |                                                 |
| \\      /  F ield         | OpenFOAM: The Open Source CFD Toolbox           |
|  \\    /   O peration     | Version:  2306                                  |
|   \\  /    A nd           | Website:  www.openfoam.com                      |
|    \\/     M anipulation  |                                                 |
\*---------------------------------------------------------------------------*/
FoamFile
{
    version     2.0;
    format      ascii;
    arch        "LSB;label=32;scalar=64";
    class       volScalarField;
    location    "1.6";
    object      gradTx;
}
// * * * * * * * * * * * * * * * * * * * * * * * * * * * * * * * * * * * * * //

dimensions      [0 -1 0 1 0 0 0];

internalField   nonuniform List<scalar> 
2658
(
0.00853127
0.0124978
0.00404796
-0.000250534
-0.0168123
-0.0142014
0.0144079
0.0142352
-0.00024396
0.0201236
-0.0138514
-0.010207
0.00692246
0.00818189
0.00623973
-0.00051972
-0.00028017
-0.000124665
-0.00685022
-0.00890188
-0.00851466
-0.0197839
-0.0235616
0.017603
-0.00739691
-0.00935376
-0.0201256
-0.002848
-0.0147357
-0.0159109
-0.0147355
-0.0201261
-0.0093543
-0.0235629
-0.00739648
0.0176028
-0.00923548
0.00443051
-0.0197807
-0.00851705
-0.00890169
-0.00684981
-0.000125972
0.000610093
-0.0114666
0.0107091
-0.0138512
-0.00053757
-0.000521697
0.0062399
0.00818231
0.00692228
0.0187559
-0.00395721
0.0210095
0.017308
-0.00915481
0.000687187
-0.0321865
0.017471
-0.00915429
0.0173084
0.0210095
-0.00395657
0.00419235
-0.0340681
0.00412453
-0.000427804
-0.0106471
-0.0106483
-0.000375625
0.010346
-0.000780865
-0.0109067
0.000303543
-0.0115019
0.014706
-7.20906e-05
-0.0122686
0.0136802
-0.0169176
-0.000357377
0.0185905
-0.0168906
-0.00041605
-0.000238265
-2.12013e-05
5.6627e-05
6.78739e-05
5.66101e-05
3.83166e-05
-6.35271e-05
5.6629e-05
-0.000407885
0.000268935
-5.21032e-05
-0.000333064
1.50324e-06
0.000334241
-0.000273964
0.000146842
0.000377623
0.000343287
0.000264594
0.000275962
-0.000576235
-0.000106276
-7.59257e-05
-3.2657e-05
0.000155078
0.000332757
0.000130427
0.00026289
0.000130406
0.000332759
0.000155072
0.000275988
-0.000576234
0.000343322
0.000264633
0.000377614
0.000146803
-0.000273983
0.000334247
-0.000543029
0.000542715
-0.000407883
-5.2104e-05
-0.000333065
0.000268916
-0.000150343
-0.000369583
-0.000248451
-0.000225631
-0.000147122
1.51364e-05
-7.10411e-05
-0.000433166
0.00033483
0.000334657
-7.10195e-05
1.50549e-05
0.000149342
-0.000161001
-0.00018495
-0.000160626
8.4355e-05
0.00010604
-0.000325653
-0.000338812
-0.000282162
-0.000357603
-0.000350671
-0.000362288
-0.000286985
-0.000504012
-0.000454513
-0.000193273
-0.000224308
-0.000164404
3.00634e-06
-1.66827e-07
-5.50788e-06
0.000155876
0.000221853
0.000194933
0.000460055
0.000582363
-0.000135363
0.000429432
-0.00114136
0.0014606
-0.0018875
0.00252075
-0.00320043
0.0042024
-0.00522739
0.00667822
-0.00813003
0.0101121
-0.0120095
0.0146707
-0.0168574
0.0209094
-0.0208847
0.0221862
-0.0229322
0.0201231
-0.0168131
-0.000250602
-0.0142005
0.00412378
-0.0340674
0.00419243
-0.0102072
0.00411189
-0.000416111
-0.000238281
-2.13515e-05
5.64991e-05
6.79302e-05
5.66561e-05
3.83297e-05
-6.35328e-05
5.6637e-05
4.95456e-06
-0.000148354
-1.38295e-05
0.000203762
0.000203755
-0.000148367
4.97325e-06
-1.37781e-05
6.31929e-05
0.000542722
-0.000543062
3.83185e-05
0.000417699
-3.72267e-05
9.66475e-06
-6.02191e-05
-5.0111e-08
4.91722e-06
5.5572e-05
4.04558e-05
5.5571e-05
-3.72927e-05
-0.000106254
-0.000267206
-7.59019e-05
5.8773e-05
5.87818e-05
-0.00026722
-1.0348e-05
0.000168157
-0.000200959
-0.000200992
3.63424e-06
0.00016819
-3.33595e-06
-3.46196e-05
-4.57119e-05
-4.26163e-05
0.00019125
-4.33146e-05
-1.29343e-05
-0.00031642
2.75629e-05
-0.000138838
0.000220317
0.000219919
0.00048077
0.000340813
-0.000947899
0.000684874
-0.00123615
-0.00123608
-2.93979e-05
-0.00138303
3.1483e-05
0.00170802
-0.00230415
2.58648e-05
0.00292837
-0.00382265
2.60947e-06
0.00478857
-0.00606755
-5.04925e-05
0.00743988
-0.00912296
-0.000159649
0.0110442
-0.0129189
-0.000318221
0.016096
-0.0168424
-0.000935699
0.0263105
0.00430913
0.031071
0.0310709
-0.0028475
0.00700743
-0.00249989
0.00997849
0.00052617
-0.00629907
-0.00629907
0.00688384
-0.000337298
-0.00810071
-0.00810059
0.00216916
-0.00262482
-0.0115374
-0.0115374
0.00396234
0.0164683
0.00396246
0.0063089
0.0180022
0.00761706
0.0103383
0.0132214
-0.019966
-0.0116094
0.0112502
0.00748972
-3.53247e-05
0.00216925
-0.00130577
-0.003392
0.0138871
-0.010223
0.00634307
0.0147297
0.00842147
-0.00448922
-0.00602553
-0.00448899
-0.00339216
-0.0116091
-0.0199657
0.00761721
0.0180028
0.00630935
0.0112503
0.00748986
0.00842258
0.0147286
0.00634205
-0.0102232
0.0138866
0.00170602
0.0127017
-0.000318103
-0.0132486
0.0203389
-0.000316783
-0.0036122
-0.0209284
-0.000366374
-0.00244873
0.000153583
0.000124805
6.06273e-05
3.37694e-05
1.93186e-05
8.45441e-06
1.60987e-06
-3.14773e-05
0.00116164
-0.0012586
0.00126386
-0.00114619
0.00140777
-0.00195887
0.00248514
-0.00332154
0.00418565
-0.00539772
0.00670107
-0.0083516
0.0101943
-0.0122677
0.0147051
-0.0168901
-0.000243762
0.0142353
0.014406
0.0103479
-0.00791985
0.000311386
-0.0079183
0.00728578
0.0100804
0.00999991
-0.00795321
-0.00772173
0.000345324
0.00666867
7.15256e-05
0.0101954
-0.00018756
-0.0117035
0.0113885
-2.89762e-05
-0.0093299
0.00861895
-0.0106992
-1.96169e-05
-0.0136902
-5.77203e-05
0.0163942
-0.0187216
-0.000104186
-0.0229323
-0.000768615
0.010709
-0.000537607
0.00170638
-0.0209287
-0.00361203
0.000624232
-0.000303871
-0.000222534
-0.000190421
-0.000114552
-5.67306e-05
-2.59829e-05
-1.14229e-05
-5.02308e-06
-1.8829e-06
4.9282e-06
-3.07895e-08
-6.01732e-05
3.62176e-06
9.65836e-06
0.000417694
3.82919e-05
-1.62115e-05
-0.000557093
0.000500046
-0.000505148
0.000534365
-0.000235405
0.000944359
-0.000295796
0.000774568
8.02672e-05
-0.00116053
-0.00116254
0.000937053
4.01958e-05
7.75475e-06
-9.06718e-05
1.87186e-06
0.000102229
0.000210349
0.000279429
-4.12185e-05
1.31101e-05
0.00013217
-8.66451e-06
-6.98393e-05
-8.00153e-05
-0.000113416
-0.000198374
-0.000185105
6.38513e-05
6.35458e-05
3.28533e-05
-0.00147421
0.00158697
-0.00217266
0.00218192
-2.09526e-05
-0.001617
-2.44824e-06
5.70073e-08
1.91139e-06
4.74924e-06
-0.000122947
-0.000194256
-0.000344935
-0.000323573
-0.000499571
-0.000601973
1.95267e-05
5.6953e-05
6.5876e-05
-0.00440194
0.00470017
-0.0060236
0.00604976
-6.46222e-05
-0.00480671
0.00371582
-3.91249e-05
-0.00285663
-4.5307e-06
0.00279764
-0.00369881
1.12812e-05
-0.00261239
0.00201745
1.01023e-05
3.3899e-06
-5.6864e-05
-0.00138285
4.52473e-05
0.000965457
4.06812e-05
-0.000996637
-0.000479599
0.000206739
-5.64705e-05
-7.69532e-07
-6.53158e-06
2.05937e-05
-2.80463e-05
1.51834e-05
-0.000127531
-0.000167869
-9.11159e-05
0.000102988
-4.78085e-05
-7.81339e-05
-4.43306e-05
7.8413e-05
0.000146748
0.000240115
7.36008e-06
8.21908e-06
-0.000296773
-0.000478478
-0.00106645
-0.00074404
-0.00137612
-0.00239956
-0.000437826
-9.39826e-05
7.64921e-05
-0.0106989
0.0113879
-0.0136905
0.0136804
-0.000188027
-0.0117028
0.00935622
-0.000106829
-0.00768925
-1.46342e-05
0.00750415
-0.00932997
6.80182e-07
-0.00704315
0.00558222
9.15626e-06
4.54197e-06
5.36491e-06
-8.16959e-05
-0.00230406
2.4603e-05
0.00170805
3.15616e-05
0.000125943
-0.00199702
0.00243226
-0.00333852
-0.0033385
-8.18667e-06
0.00411418
5.67398e-05
-0.00540332
-8.55601e-06
0.00657384
3.24374e-06
-0.00829914
-1.8632e-06
0.00996742
-0.000174607
-0.0119312
7.10761e-05
0.014465
-0.000836791
-0.0156626
0.000491155
0.0207065
-0.00350296
-0.0166934
-0.00225102
-0.016693
0.00430906
0.0263108
-0.000935457
-0.0168414
-0.000688374
0.0160952
-0.000318102
-0.0129188
-0.000344838
0.0110447
-0.000159365
-0.00912155
-0.000152501
0.00744025
-5.02243e-05
-0.00606727
-5.87699e-05
0.00478855
2.86449e-06
-0.00382249
-7.49342e-06
0.00292839
2.60626e-05
8.72545e-05
-0.000147904
-0.000116678
-8.36187e-05
0.000271006
1.79508e-05
-0.000159478
-0.000266026
-0.000375272
-0.000529072
-0.000732266
-0.000911025
-0.000808286
3.1232e-05
0.00124938
-0.00142038
-0.0112323
-0.0112324
-0.0115728
-0.00958756
-0.00333101
-0.00127574
-0.0052201
0.00833987
0.0132826
0.000263904
7.9383e-05
0.0007585
-0.00350248
0.0207053
0.000491652
-0.0156625
-0.00148369
-0.0005691
-0.000539937
7.18238e-05
-0.0119311
0.0144646
-0.000836787
-4.43987e-05
-0.000160482
-0.000174917
0.00996607
-1.4666e-06
-0.00829854
-0.000260873
-0.000446362
-0.000337586
-0.000232305
-7.98008e-06
0.00411411
-0.0054033
0.00657359
3.27475e-06
-0.000152945
-0.000116941
1.42417e-05
9.09076e-06
3.01228e-06
-7.46884e-05
-2.93808e-05
0.00135762
7.52503e-05
0.00135773
0.000125844
-0.00199692
-1.25593e-05
0.00243253
8.73583e-05
-8.17004e-05
-0.00014249
-1.25175e-05
2.1525e-05
-5.68455e-05
-5.64557e-05
-0.00099668
4.06838e-05
0.000965443
0.000206712
0.000684843
-0.000138834
-0.000947926
8.70935e-05
0.000340823
0.000480783
0.000219881
0.000582378
0.000220336
8.0959e-05
-0.000178789
0.000102503
-4.33196e-05
-4.56925e-05
0.000191245
-4.26392e-05
2.90696e-05
9.9041e-07
1.22158e-06
9.81235e-07
6.18419e-08
1.49445e-06
2.90788e-05
-3.318e-06
0.000102506
-3.26893e-05
-0.000178805
8.09602e-05
1.75872e-07
5.61931e-05
4.80312e-05
-3.1469e-05
-0.000188618
5.5963e-05
-0.00010213
0.000189974
0.000579327
-0.00034874
0.000111831
5.09025e-05
2.90858e-05
2.97593e-05
2.12677e-06
-1.63413e-06
-2.58764e-06
-6.33503e-06
-1.31816e-05
-2.88564e-05
1.89741e-05
2.90029e-05
6.77847e-05
0.00017724
-0.00121802
-0.00342497
0.0136078
-0.00249985
0.00700754
-0.0151361
-0.00703932
-0.00703864
-0.0151371
-0.00770078
-1.22212e-05
-0.01358
0.0226362
0.00156774
-0.000914974
-0.0162967
-0.00150041
0.00965655
-0.00725271
-0.0157751
-0.0130603
-0.0133417
-0.00915829
0.00091328
0.00196938
0.000914601
0.000282853
-0.0128782
0.000915027
-0.00769999
-0.0135802
-1.15761e-05
0.00437263
0.00156824
-0.0162968
-0.000914703
0.00205219
-0.000316685
0.0203392
-0.0132491
-0.000317632
0.0127025
0.00100028
-0.000561951
0.00197001
0.00158889
-0.00422457
0.00437293
0.00304983
0.000197621
-0.00148577
-0.000561359
-0.000179424
0.000999725
-0.001902
-3.54134e-05
-0.00130564
0.00062424
-0.000303945
-0.000768872
-0.00033249
-5.88085e-05
-3.57176e-06
5.47159e-05
-0.0153877
0.0163941
-0.0187224
0.0185911
-0.000358189
-0.0169171
-5.75373e-05
-0.000294766
0.00063199
0.000382143
-0.000196286
-0.000140582
-9.94906e-05
-6.87067e-05
4.89818e-05
0.0034347
-6.49126e-05
-7.34314e-05
-0.00200084
0.00011665
-0.00199885
0.00251657
0.000181301
-0.00329901
-0.00332868
0.00256277
8.95015e-05
0.00423331
0.000266504
-0.00518305
-0.00527525
9.97337e-05
0.00666923
0.000344463
-0.00772064
-0.00795372
7.18014e-05
0.0100003
0.000303271
-0.0109058
-0.0115033
-7.13476e-05
0.000720001
0.00141449
0.00460476
-0.000240399
-0.000272203
-9.01721e-05
-0.000439013
0.00286657
0.003073
0.00404705
0.00214711
0.00126589
0.000768971
0.000459849
0.000253438
3.93075e-05
-8.95896e-05
-0.000183873
-0.00144119
0.000143654
-0.00144061
0.00181711
0.000220435
-0.00239659
-0.0023973
0.00181777
0.000119302
8.22148e-05
4.80847e-05
-2.20733e-05
-1.05228e-06
-9.90793e-05
-0.000107229
0.000883927
-0.000106903
0.000612459
9.65348e-05
-0.000810847
-0.000811514
0.00061318
-7.12668e-05
0.000267033
-5.13873e-05
-5.17612e-05
0.000374156
-4.26844e-05
0.000267291
-0.000296164
0.000944656
-0.000235261
0.00093702
8.02421e-05
-0.00116229
-0.00116118
0.000775469
-9.90342e-05
-2.20687e-05
-7.78717e-07
1.60394e-06
4.52205e-05
-0.00114139
-3.14369e-05
-0.00147432
1.01736e-05
-0.00217282
-4.4841e-06
-0.00285658
-3.90984e-05
0.00371614
-0.00332195
8.94883e-05
-0.00332844
-0.00329981
0.000181003
0.00256277
-0.00200061
-0.00199937
0.000116403
0.00149923
7.04694e-05
0.00248554
-0.00195924
0.00218208
-0.00161702
-2.09433e-05
0.00140812
4.02028e-05
-0.00114648
0.00126397
-2.46401e-06
0.00158707
-0.00125868
0.00116165
-0.000557122
-6.50578e-06
0.00050007
6.79935e-06
-0.000505188
-1.0289e-06
0.000534566
0.000322539
-0.000164386
3.0355e-06
1.5166e-05
-2.79816e-05
2.0595e-05
0.000132131
0.000279439
0.00027107
-8.3648e-05
-0.000116708
-4.11812e-05
-0.00011348
-0.00014839
-0.000205644
-0.000198448
-0.000323425
-0.000282892
-0.00028153
-0.000204996
5.65396e-05
-0.000302087
-0.000304985
-0.000498976
-0.000744422
-7.79011e-05
-7.3839e-05
0.000311056
0.000310663
-0.00137779
-0.0115737
-0.00959603
-0.00333475
0.0209093
8.38091e-05
-0.0208841
0.000264028
-0.0114663
-0.000438974
-0.000366318
-0.0024487
0.000153711
0.000124778
6.07456e-05
3.37256e-05
1.93227e-05
8.45867e-06
2.45995e-05
-0.00188757
-5.22881e-05
-0.00261244
1.12421e-05
-0.003699
-7.53619e-06
-0.00480697
-6.45536e-05
0.00605002
-0.00539828
9.9508e-05
-0.00527494
-0.00518417
0.000266495
0.00423297
0.00419835
-0.000274859
0.00303105
0.000313657
-0.00376797
-0.0037688
0.00303185
-0.000274747
0.00419751
-0.000112329
0.000470152
0.00025981
0.000120802
0.000180802
-7.12302e-05
-9.12052e-05
-0.000286692
-0.000364206
-0.000269569
-0.000147098
-0.000225709
-0.000248553
-0.000348638
-0.000369626
-0.000150339
-0.00022426
-0.000193277
0.000111977
-0.000454603
-0.000504197
-0.000167887
-9.07167e-05
1.86953e-06
0.000102177
0.000221848
0.000155864
-1.62535e-05
-5.47332e-06
-2.22494e-07
-0.00026621
0.000429454
-0.00047961
-0.000135412
0.000195008
0.000459947
0.000210208
-8.57497e-06
1.30204e-05
6.34557e-05
0.00146063
3.28828e-05
0.00201749
-6.99151e-05
-7.96416e-05
6.35703e-05
0.00252068
-0.00320086
-6.47811e-05
-0.00440245
9.2513e-06
0.00558216
-0.00602375
-1.46281e-05
-0.00768963
-0.000106973
0.0093563
-0.00835196
0.00670175
-0.00014019
7.92133e-05
-0.00704352
5.11898e-07
0.00750455
-2.6008e-05
-1.14549e-05
-5.02504e-06
-1.85318e-06
3.41628e-06
5.47706e-06
4.49305e-06
-0.000116835
-0.00015271
-7.90563e-07
-7.1924e-07
-8.13674e-06
-1.95603e-05
0.0125992
5.95346e-06
3.29108e-06
-4.2577e-05
0.0171417
8.37265e-05
-0.000339635
-0.000211884
-0.000138974
-9.16292e-05
-5.88535e-05
-3.47919e-05
-0.000118881
0.00143973
0.00104901
0.00104842
0.0014405
-0.000118854
-3.4787e-05
-5.89402e-05
-0.000183775
0.00251744
-8.94356e-05
-6.43051e-05
0.000103121
0.000253651
0.000459947
-0.000112192
-5.7851e-05
-7.31902e-05
-6.86304e-05
4.92018e-05
0.00343478
-0.000123267
-0.000184368
5.65257e-05
0.00420251
-0.00522762
-7.72776e-05
0.00667838
-0.0081303
-7.24078e-05
0.0101124
-0.0120101
6.87714e-06
-0.0153879
-4.24089e-05
0.0171404
-0.0168585
-0.000688045
0.0146704
-0.000345413
-0.000437419
-9.45184e-05
1.90693e-05
-0.00034375
-0.000194738
-0.000298078
-0.000598547
-0.00047948
-0.00105986
-0.00127539
-0.00240451
-0.00522277
0.00833933
-0.00923515
0.00442873
-0.013342
-0.0157749
-0.00725267
0.00965673
-0.00150079
0.000609744
0.0132821
-8.9358e-05
0.0221863
-0.000190471
-0.000114553
-5.68692e-05
-6.15215e-05
-0.000123064
3.04831e-06
-4.41963e-05
-0.000160401
-8.28888e-06
-0.000211848
0.000118881
0.000144407
-0.00013898
-9.15562e-05
-0.000393148
0.0066641
0.00481959
0.000388822
-0.00560408
-0.00560497
0.00482062
-0.000393212
0.0066633
-0.000121188
1.17367e-06
0.000299759
-5.85039e-05
0.000143381
0.000192454
0.000600121
-8.08679e-05
0.0100786
0.00728715
-0.000549639
-2.33117e-05
-0.000217844
0.00238319
-0.000125433
0.00688392
-0.00018597
7.94214e-05
0.000758719
0.0030488
0.00997892
-0.00422509
0.000197213
-0.0014856
-0.00915776
0.0226357
-0.0130599
0.000913588
-0.000179679
-0.000891643
0.00411193
0.000686771
0.00166998
0.00420263
3.82395e-05
-0.000781036
0.0016693
0.012497
0.00853402
0.0215611
0.0120094
0.0174715
0.0193436
-0.000427909
0.00222995
0.00131256
0.000791034
-0.000120997
0.000768579
0.00126602
-8.03598e-05
-0.000549806
0.000193348
1.22174e-06
0.000240043
0.000146803
7.85739e-05
7.82726e-06
1.54831e-08
1.78599e-06
4.48102e-06
6.60922e-05
0.0047005
6.88988e-06
7.74506e-06
7.71172e-05
0.0125982
5.50044e-05
-0.000293785
-0.00019581
0.000381811
0.000631904
-4.35116e-06
-5.96725e-05
-0.000239772
-0.000333105
0.00141451
0.0046042
0.00286621
0.000719831
3.91744e-05
0.00214569
0.00128989
0.00307371
0.00060078
-9.94405e-05
0.00418622
-4.42942e-05
-7.79709e-05
-0.000127305
-4.76206e-05
3.94324e-05
0.00014404
0.000303238
-0.000339487
0.00128404
-0.000153018
-5.89103e-05
-7.50636e-06
0.0027977
-6.43482e-05
0.00149927
7.04343e-05
4.80301e-05
5.61831e-05
1.76495e-07
-0.000102144
6.98494e-05
5.59531e-05
-0.000188635
-3.14718e-05
9.51835e-08
0.000579267
0.000190116
-0.000433222
-0.000346316
0.000373349
-4.28679e-05
0.000149198
-0.000269196
7.87674e-05
0.00861882
-7.19549e-05
-0.000104046
0.00205227
-0.000185663
-0.00190252
6.31851e-05
0.000355391
-8.18611e-06
-0.000124094
-4.59233e-05
-0.000627248
-7.73779e-05
-2.88078e-05
-5.2204e-05
-7.65596e-06
-0.000266221
6.79755e-06
0.000322722
0.0132221
0.0103387
0.000163034
-0.00129582
0.000162475
0.0187562
0.0215621
-0.000167681
-9.1112e-05
0.000103118
8.02688e-05
0.000937005
0.00077466
-0.00116062
-0.00116243
4.02065e-05
-0.00114621
0.000534358
0.000322676
-0.000193355
-0.000224349
-0.000164401
3.00083e-06
-1.62197e-07
-5.49772e-06
0.000155939
0.000221843
0.000194953
0.000460189
0.000582373
-0.00047958
0.00022034
0.000219949
0.000480806
8.10292e-05
0.000340832
0.000355401
0.00034084
0.000480798
0.000219955
0.000582416
0.000220337
-0.00047957
0.000429426
-0.000135378
0.00046011
0.000194992
0.000221898
0.0001559
-5.51495e-06
-1.62186e-05
0.000500085
-0.000505138
0.000534475
1.51481e-05
3.07488e-06
-0.000164441
-0.000224383
-0.000193296
-0.00045472
0.000111863
-0.000504175
-4.26901e-05
0.000267276
-0.000106947
0.000883904
-5.1434e-05
0.000267026
-4.28912e-05
-0.000503981
0.0001118
-0.000235418
0.000944373
-0.000295807
-9.90719e-05
0.000613077
0.000612466
9.64678e-05
-0.000811408
-0.000118886
0.00143989
0.000116489
0.00149926
-0.00195902
7.05393e-05
0.00248513
-0.00285647
0.00218194
-2.09487e-05
-0.00161692
0.00140776
3.83215e-05
5.66344e-05
6.79787e-05
5.67538e-05
-2.10957e-05
-0.000237922
-0.000415664
0.00411209
-0.00339208
0.013887
-0.0102228
0.00170619
0.0127021
-0.000317996
-0.0132489
0.00965655
-0.00725257
-0.0157745
-0.0133415
-0.0130597
-0.0135801
0.0226358
0.0043726
0.00304959
-1.23156e-05
-0.00770107
-0.0151368
-0.00703934
-0.0128784
-0.00703892
-0.0151376
-0.00770089
-0.0135807
0.0226356
-0.0133414
-0.0130601
-0.015775
-0.00725262
0.00965651
-0.0132491
0.0203389
-0.0209284
0.0138867
0.00170657
0.0127024
-0.0102228
0.00634149
0.014728
0.0103381
0.00761653
0.0180017
0.00630931
0.00396197
0.0112497
-0.0115379
-0.0115376
0.00396198
0.00630882
0.0180015
0.00761647
0.0103377
0.0132204
0.0147294
0.00634253
0.00818198
0.00692181
-0.00395761
0.0187555
0.021009
0.0215601
0.0173081
0.0174709
0.0193432
0.0174713
-0.0321869
0.000686464
0.000686954
-0.00915576
0.0173078
0.0215601
0.0210092
0.0187562
0.00692143
0.00818191
0.00624026
-0.000519538
-0.000279903
-0.000124709
-0.00685019
-0.0089019
-0.00851523
-0.019782
-0.0235612
0.00442931
-0.00923524
0.020909
-0.0168577
0.0146704
-0.0120101
0.0101118
-0.00813021
0.00667797
-0.00522773
0.00420255
-0.00320055
0.00252072
-0.0018876
0.00146063
-0.0011414
0.00116161
-0.00125857
0.00126391
-0.00114636
0.00093694
8.01659e-05
0.000775352
-0.000296155
0.000944633
-0.000235304
0.000322541
-6.35427e-05
3.83327e-05
5.67167e-05
6.7929e-05
5.65078e-05
-2.13591e-05
-0.000238251
-0.000415966
0.00411188
-0.00339202
-0.00130584
0.00216909
0.000624065
-0.00810057
-0.00810063
0.00216909
-0.00130574
0.000624191
-0.00361211
-0.0209287
0.020339
-0.0015006
-0.0162968
0.00156768
-0.000915028
0.0020523
-0.000316531
-0.000366357
-0.00244882
-0.00121813
-0.00244877
0.00156739
0.00437251
0.00997838
0.00304972
-0.0025001
-0.00249995
0.0099785
0.000525793
-0.00629917
0.00688376
0.00688369
-0.000185898
-0.00629915
0.000197179
0.00158888
0.00196923
0.000913657
-0.00915812
0.000913864
0.000282199
0.0136081
-0.00342529
0.00430882
-0.00739697
-0.00935437
-0.0201272
-0.0147359
0.0310713
-0.0166933
0.0207053
0.0207061
0.00049132
0.0160956
-0.000317987
-0.0129189
0.0110445
-0.000159244
-0.00912177
0.00744003
-5.02277e-05
-0.00606716
0.00478864
2.81722e-06
-0.00382276
0.00292848
2.59888e-05
-0.0023041
0.00170807
3.14675e-05
-0.00138294
0.000965492
4.06955e-05
-0.000996557
-0.000138787
-0.000947836
-0.000947837
8.10141e-05
-0.000178728
5.87885e-05
-0.000267189
-1.0361e-05
0.000168185
0.000168158
-0.000200943
-1.62505e-06
0.000203764
0.000203756
-0.000148371
2.90819e-05
0.000334802
0.000334642
-7.10371e-05
8.43466e-05
-0.000160615
-0.00016102
-0.000269552
-0.000147106
-0.000225756
-0.000248605
-0.000369656
-0.000150374
0.000268928
-0.000407933
5.66178e-05
0.0001901
0.000579254
-0.000348765
-0.000188659
-3.14836e-05
-0.000333069
1.52113e-06
0.000334241
-0.000543001
-2.75324e-08
6.31912e-05
0.000542707
-5.21331e-05
4.9244e-06
5.55907e-05
1.62152e-06
8.43866e-06
1.92899e-05
3.37683e-05
6.07019e-05
0.000124929
0.000153708
8.38043e-05
-0.0208847
0.0221863
-0.0229322
0.0201229
-0.0168895
0.014705
-0.0122671
0.0101938
-0.00835122
0.00670077
-0.00539783
0.00418566
-0.00332172
0.00248535
-0.00195914
0.00140805
4.01363e-05
-0.00116226
-0.00116104
-0.000811008
0.00104847
0.000143721
0.00104884
-0.00144094
-0.00199904
-0.0020007
0.00256276
0.00251686
0.000180924
-0.00332854
8.96901e-05
-0.00332186
-3.90175e-05
0.00371592
-0.0036988
-7.52703e-06
0.0047002
-0.0044019
0.00343467
1.13381e-05
0.00279753
-4.4432e-06
-0.00217265
0.00158696
-2.46285e-06
0.00126389
-1.04248e-06
-0.000505143
1.52253e-05
-5.21147e-05
0.000268933
-0.000150397
-0.000369634
-0.000248568
-0.000225656
-0.000147131
-0.000269161
0.00014917
-7.10539e-05
1.51565e-05
-0.000433141
0.000189974
4.93536e-06
5.6625e-05
0.000579292
-0.00040787
0.000542699
6.32026e-05
-1.38029e-05
-0.000148358
2.97725e-05
4.80997e-05
8.22396e-05
0.000119278
0.000144417
0.000118881
-2.30826e-05
-0.000217713
0.00238318
-0.00262509
-0.00602564
-0.00448913
-0.00190248
0.00100003
-0.00017987
-0.00031752
-0.00148559
-0.0162967
-0.000914916
0.00205217
-0.000185655
7.93136e-05
0.000263946
-0.0114667
0.0107092
-0.0138512
0.00419224
-0.0340681
0.00412357
-0.0142008
-0.000250032
0.0144066
0.0142352
-0.0168132
-0.000243678
0.0014143
0.00460478
-0.000240165
-0.00522169
-0.00958933
-0.0115727
-0.00137555
-0.00240912
-0.00333412
-0.00127527
-0.000479311
-0.00105712
-0.00074561
-0.000500568
-0.000598053
-9.42599e-05
-0.00043777
5.50329e-05
0.0171407
-0.0187216
0.0163937
-0.0169171
-0.00035802
0.0185908
-0.000104394
-0.000190382
-0.000366469
-0.000316753
-0.00361216
-3.55355e-05
-0.00056154
0.000197541
-0.00422452
-1.22405e-05
0.00700749
-0.00284757
-0.0112325
-0.00141969
0.0012502
3.10988e-05
-0.000809351
-0.000911034
-0.000732797
-0.000529138
-0.000375455
-0.000265983
-0.000159472
1.80444e-05
0.000271036
0.00027105
0.000279424
-4.11759e-05
-0.000113624
-0.00019882
-0.000324318
-0.000343094
1.92624e-05
-0.0002976
-0.000194878
-0.000123316
-0.000183758
5.67477e-05
6.61071e-05
0.00558201
-0.00602374
0.00470011
-0.00480662
-6.45869e-05
0.00604995
-0.00768906
-0.000106769
0.00935613
-0.0117032
-0.000187474
0.0136792
-5.7032e-05
-0.0136899
0.0113881
-1.99101e-05
0.0125987
-0.0153882
-4.26204e-05
3.27357e-06
-0.000114409
-5.68282e-05
-2.89554e-05
-0.00932976
0.00750399
7.7816e-07
0.00861844
-0.0106988
-7.22431e-05
7.74226e-05
-4.12756e-06
-5.97069e-05
-8.97691e-05
0.0132822
0.00061
-0.00150066
0.00833881
-0.000332595
-0.000537139
0.0028656
0.00853194
0.0124964
0.00404627
0.00308044
0.000720366
-0.000294776
0.00063218
0.000382192
7.78838e-06
7.14454e-06
4.47969e-06
1.86119e-06
-6.9965e-05
-7.87542e-05
6.37466e-05
4.92107e-05
0.00343469
-0.00369889
0.00279762
-0.00285658
-3.91589e-05
0.00371603
-7.68025e-06
-1.14436e-05
-2.59811e-05
-1.46353e-05
4.52613e-06
9.27272e-06
-0.00440224
-6.49453e-05
-0.000116839
0.0047885
-5.873e-05
-0.00606783
-5.0557e-05
0.00744005
-0.000151999
-0.00912215
-0.000159626
0.0110439
-0.000344447
-0.0129186
-0.000319098
0.0160954
-0.000688376
-0.0168413
-0.000935606
0.0263103
0.0176022
-0.00350338
0.000758638
0.000758555
0.0263108
-0.000935495
-0.0168412
-0.00350325
-0.0166926
0.00430915
0.031071
-0.0022505
-0.0147355
-0.020126
-0.00935394
-0.0235622
-0.00739686
-0.00284737
0.00700752
-0.00422469
0.000914216
0.00196978
-0.00915802
0.000913854
-0.00148574
-0.000561952
-0.000891696
-0.000337364
-0.000125508
-0.000222518
0.000177204
-0.00056935
0.00049132
-0.0156619
0.0144657
-0.0119314
0.00996651
0.00996619
-1.38711e-06
-0.00829903
3.49094e-06
0.00657345
-8.32392e-06
-0.00540331
5.6854e-05
0.00411412
-8.09184e-06
-0.00333882
8.73586e-05
0.00243247
-1.25598e-05
-0.00199695
0.000125927
0.00135767
-2.9372e-05
-0.00123611
0.000206791
0.000684923
8.70998e-05
0.000684875
-0.000138802
-0.000996617
4.06773e-05
0.000965488
4.52576e-05
-0.00138294
3.14937e-05
0.00170803
2.46835e-05
-0.00230416
2.5923e-05
0.00292833
-7.43909e-06
-0.0038228
2.63033e-06
5.67494e-05
0.00411406
-4.57301e-05
-0.00333858
0.00243237
-0.00199688
0.00135767
7.51887e-05
-0.0012361
0.000206707
-5.64455e-05
-5.68344e-05
0.000125929
-0.000116894
-0.000148468
-0.000205859
-0.000283098
-0.000304193
-7.53498e-05
0.000311216
0.000311585
-0.0112323
-0.0115725
-0.00137543
-7.62848e-05
-0.0156611
-0.000837423
0.0144656
7.15265e-05
-0.0119313
-0.000174775
-0.000160402
-0.0005401
7.1196e-05
-0.000626863
-0.000446279
-1.56989e-06
-0.00829885
0.00657369
-0.00540351
-8.50096e-06
-0.00033731
-0.000123416
-0.000232178
-8.18103e-06
-0.000142462
-1.25946e-05
2.17125e-05
-7.46768e-05
-2.93668e-05
2.75912e-05
-0.000316326
5.88031e-05
-0.000178706
0.000332815
0.000130511
0.000130489
0.000332825
0.000155131
-3.26427e-05
0.000275988
-0.000576215
-3.72782e-05
9.68517e-06
0.000417689
3.82898e-05
-0.000273959
0.000146853
0.000377662
0.000264674
0.000343322
0.000191264
-4.26213e-05
-4.57155e-05
-4.32846e-05
-1.2914e-05
0.000262904
-4.33005e-05
0.000155135
0.000276031
-3.26501e-05
-0.000106248
-3.72206e-05
0.000417709
9.67338e-06
-6.01925e-05
-5.35676e-08
-0.000543018
0.000334257
1.48572e-06
-0.00033307
-3.14762e-05
9.87057e-07
-4.56731e-05
-3.46211e-05
0.000102504
-0.000106268
-7.58994e-05
-3.314e-06
2.90667e-05
1.0027e-06
9.83022e-08
1.22294e-06
-3.32434e-06
0.000102519
-0.000267204
-7.58212e-05
-5.64631e-05
3.01995e-06
9.09679e-06
1.42437e-05
1.89461e-05
2.90796e-05
6.77025e-05
-4.44098e-05
-0.000836407
-4.44077e-05
0.00015352
-0.000688005
0.0209094
8.35573e-05
0.0171413
-4.23544e-05
0.0163942
-5.73967e-05
0.0136804
-0.00018771
-0.0117029
0.0101945
7.20598e-05
0.00666856
0.00666361
0.000344632
-0.00795375
0.0099988
0.0100793
0.000302897
-0.0115029
-7.0925e-05
-0.0122687
0.0147051
-0.0169173
0.0185905
-0.000357466
-0.0168906
-0.000243168
0.0142341
0.0144071
-0.000250563
-0.0168127
0.0201238
-0.0229323
-0.000104148
-0.0187218
0.0221864
-0.0208845
0.0132826
0.00026401
-0.0114667
-0.000438959
0.0107094
-0.0007688
-0.0138516
-0.0102066
0.00419218
0.00412439
-0.034069
0.0124971
0.0120086
0.00166912
-0.000427991
-0.010649
-0.000375058
0.0103458
0.0103473
-0.000779798
-0.0109048
0.000303046
0.0100781
0.0100001
-0.0115028
-7.17568e-05
-0.00795378
0.00034498
0.00666324
0.0066691
7.17867e-05
-0.00527522
0.000266452
0.00419737
0.00423325
9.96487e-05
0.000240285
0.000147021
7.85866e-05
7.81197e-06
-3.19675e-08
-8.60521e-06
1.24422e-05
6.35215e-05
3.28841e-05
0.00201744
-0.00217268
0.00158712
-0.00161705
-2.08709e-05
0.00218205
-4.52457e-06
-5.04335e-06
-1.85347e-06
-2.51557e-06
-7.78184e-07
-6.52452e-06
-0.000557101
-0.00026619
0.000102189
0.000210337
0.000132031
2.06466e-05
1.88215e-06
-2.38058e-07
6.80433e-06
-2.80312e-05
-4.42897e-05
-6.86391e-05
-9.95267e-05
-0.00014058
-0.000196336
0.000194091
0.00128686
0.00214493
0.00126546
0.000604875
1.68692e-06
-0.000121109
-8.06112e-05
-0.00772038
-0.00560526
0.000388496
0.00481923
0.00482026
-0.000393238
-0.00376906
0.000314063
0.00303095
0.00303158
-0.000274833
-0.00329917
0.000181189
0.00251691
0.002563
-0.00332865
8.96866e-05
-5.74879e-05
0.00030561
0.000768156
0.000459722
0.00014413
-7.34504e-05
-8.95367e-05
-0.00199912
0.000116455
0.00144016
0.00149934
-0.00200055
7.04474e-05
-7.80557e-05
3.91986e-05
0.000253566
0.000103138
-4.81225e-05
-0.000127423
-9.07733e-05
-0.000168111
-9.11686e-05
-0.000286703
-0.000364177
-0.00032565
-0.000282082
-0.000338804
-0.000362244
-0.000286987
0.000373332
-0.000350613
0.000180803
0.000120814
-6.42512e-05
-0.0001189
-3.47528e-05
3.40693e-06
1.01322e-05
-0.00147434
-3.14643e-05
5.4576e-06
1.13496e-05
-0.00261242
-5.22028e-05
-8.17105e-05
8.74111e-05
-8.16704e-05
-0.000116856
-0.000152786
6.06285e-05
0.00012488
-0.000344979
0.0146707
6.02908e-06
0.0125993
-1.96575e-05
0.0113881
-2.91712e-05
0.00935672
-0.000107084
-0.00768916
0.00670127
9.98663e-05
0.00423291
0.00419777
0.000266221
-0.00527472
-0.00518429
-0.000393423
-0.00376811
-0.000121346
0.00131155
0.0022281
0.00420139
3.78199e-05
3.78908e-05
0.00166888
-0.000427869
-0.0142025
-0.0106472
-0.000303872
7.9336e-05
3.1425e-06
-0.000190437
-0.000114578
-0.000123073
-8.24523e-06
-0.000160288
-0.000174902
-0.000152795
3.61182e-06
-7.21709e-07
-6.14778e-05
-2.88629e-05
-1.31105e-05
-6.33253e-06
-2.58783e-06
2.13246e-06
4.04552e-05
5.5609e-05
1.61637e-06
8.48637e-06
1.92794e-05
3.36863e-05
-5.83087e-05
0.00667763
-7.72519e-05
0.00558235
9.34787e-06
-0.00602378
-1.46566e-05
0.00604988
-6.46145e-05
-0.00480663
0.00418576
-0.00539816
-9.97654e-05
6.58149e-05
5.69938e-05
-0.000324379
-0.000500542
-0.000744414
-0.000302118
-0.000281837
-0.000204963
-0.000147784
-0.000199044
-0.000113714
-0.000116414
-8.35897e-05
-4.10648e-05
0.000279464
0.000210586
0.000132193
-0.00114134
-3.14396e-05
0.0011616
-6.49437e-06
0.00050007
6.7944e-06
4.92956e-06
-1.86325e-06
-5.04383e-06
-1.14483e-05
-2.60882e-05
-5.67291e-05
-8.14142e-06
-7.79018e-07
5.8233e-07
-0.00704286
0.00750397
-0.00933007
0.00861919
-0.00813038
-7.24255e-05
0.0101117
-0.00015217
-0.0120102
-9.33233e-05
-0.000436976
-0.0168581
-0.00333309
-0.00923563
0.00833948
-0.00851709
-0.0197804
0.00442955
-0.0095872
-0.00522103
-0.0089014
-0.00684975
0.000610113
-0.00012569
-0.000272064
-0.000521435
-0.000537575
0.00624001
0.0046042
-0.000239541
-8.93777e-05
-0.00127639
-0.00240766
-0.00047868
-0.00106035
-0.000297008
-0.000599673
1.98678e-05
7.88598e-05
7.67117e-05
-0.0106987
-0.0136903
5.47845e-05
-0.0153878
-5.9285e-05
-3.33425e-06