/*--------------------------------*- C++ -*----------------------------------*\
| =========                 |                                                 |
| \\      /  F ield         | OpenFOAM: The Open Source CFD Toolbox           |
|  \\    /   O peration     | Version:  2306                                  |
|   \\  /    A nd           | Website:  www.openfoam.com                      |
|    \\/     M anipulation  |                                                 |
\*---------------------------------------------------------------------------*/
FoamFile
{
    version     2.0;
    format      ascii;
    arch        "LSB;label=32;scalar=64";
    class       volVectorField;
    location    "0.7";
    object      flux;
}
// * * * * * * * * * * * * * * * * * * * * * * * * * * * * * * * * * * * * * //

dimensions      [0 1 -1 1 0 0 0];

internalField   nonuniform List<vector> 
5322
(
(-0.000999467 0.00257976 -0.00345862)
(2.49203e-05 0.000246783 -0.00350676)
(2.99204e-05 -1.09095e-05 -0.00358038)
(2.90911e-06 -9.88312e-05 -0.00388077)
(-7.82279e-07 -5.07928e-05 -0.003804)
(-9.08216e-07 -1.34844e-05 -0.00374963)
(-2.05086e-07 5.42989e-06 -0.00370754)
(2.98269e-07 2.30673e-05 -0.00367735)
(1.29496e-07 5.62866e-05 -0.00366122)
(-8.76441e-07 9.77614e-05 -0.00367159)
(-3.73835e-06 2.06767e-06 -0.00361833)
(4.03603e-05 -0.000706615 -0.00362448)
(6.21271e-05 -0.000784714 -0.0027265)
(-0.000855782 -0.000704416 -0.00375958)
(-2.26076e-05 -0.000611678 -0.00411152)
(0.00149026 0.00132429 -0.00328363)
(-0.00117099 0.00177115 -0.00388121)
(-1.82686e-05 -2.98553e-06 -0.00290712)
(-0.000894027 0.00122429 -0.00409576)
(0.000578232 -0.00145435 -0.00413916)
(-0.000786075 0.00138553 -0.00417518)
(0.000687212 -0.00141214 -0.00416659)
(-0.000726919 0.00138872 -0.00418322)
(0.000735922 -0.00142754 -0.00421928)
(-0.000745845 0.00142732 -0.00423798)
(0.000722575 -0.00140779 -0.0042319)
(-0.000724264 0.00141186 -0.00425611)
(0.000758786 -0.0014504 -0.00429628)
(-0.00074798 0.00145283 -0.00432393)
(0.000756396 -0.00144506 -0.0043252)
(-0.000717799 0.00146097 -0.00435303)
(0.000825107 -0.00147184 -0.00438579)
(-0.000619356 0.00152744 -0.00438578)
(0.000955971 -0.00132185 -0.00433966)
(1.7637e-05 0.00127313 -0.00415233)
(0.00121212 -0.000641794 -0.00342452)
(0.000854906 0.00126291 -0.00390542)
(-0.000340791 0.00158201 -0.00397146)
(0.000956905 0.000790874 -0.00409901)
(-5.50954e-05 0.000858522 -0.00289466)
(-0.000907598 0.00116767 -0.003811)
(0.000912476 0.000975639 -0.00393307)
(-5.52542e-05 0.00101232 -0.00284243)
(-0.000970803 0.00109003 -0.00393861)
(0.000964837 0.00103927 -0.00390002)
(-3.31867e-05 0.00103178 -0.00288987)
(-0.00103184 0.00105584 -0.00399338)
(0.000901607 0.00112803 -0.00376988)
(-2.26869e-05 0.00104809 -0.002852)
(-0.00108158 0.000998377 -0.00390624)
(-0.0010675 0.00125302 -0.00438096)
(-0.0015491 0.000603409 -0.00313144)
(-0.000485868 0.000677554 -0.00426926)
(0.00103483 -0.00222351 -0.003995)
(-6.61365e-05 -0.000120434 -0.00373378)
(-0.00170763 -0.00128598 -0.0037971)
(-4.87672e-05 0.000678041 -0.00451733)
(0.0016314 -0.00168574 -0.00373733)
(-1.95846e-05 -9.49216e-05 -0.00377083)
(-0.00163026 -0.00146508 -0.00380024)
(-7.03498e-06 0.000688448 -0.00457188)
(0.00158878 -0.00165772 -0.00378768)
(-9.13297e-06 -8.47298e-05 -0.00377223)
(-0.00160129 -0.00145422 -0.00370658)
(-4.51939e-07 0.000691238 -0.0045689)
(0.00156465 -0.00171572 -0.00391555)
(2.00718e-05 -0.000109525 -0.00375458)
(-0.0015858 -0.00140668 -0.00352065)
(6.92264e-05 0.000697904 -0.00446189)
(0.00129922 -0.00188919 -0.00415841)
(5.31019e-05 6.58887e-05 -0.00311096)
(-0.00137758 0.00164781 -0.00483227)
(0.00156106 0.000917641 -0.00460198)
(-0.0016153 0.00128224 -0.00453638)
(0.00155492 0.000957556 -0.00458424)
(-0.00158351 0.00121301 -0.00456197)
(0.00158649 0.00101201 -0.00455955)
(-0.00158344 0.00120778 -0.00454378)
(0.00180262 0.00102564 -0.00460381)
(-0.00130009 0.00142011 -0.00436121)
(0.000635568 0.000127921 -0.00415419)
(-0.000847628 0.000481912 -0.00320346)
(-0.000549661 0.000726811 -0.00332063)
(0.000947859 0.00120636 -0.00447427)
(9.72644e-05 -0.000101133 -0.00304144)
(-0.000530008 -0.000499759 -0.00405137)
(0.000631614 0.000144425 -0.00549407)
(-0.00170358 0.000283355 -0.00336987)
(-0.000635802 0.000530173 -0.00344951)
(0.00201968 6.20267e-05 -0.00309268)
(-8.71439e-05 0.000139064 -0.00390506)
(3.66365e-05 2.56619e-05 -0.00344702)
(6.7456e-05 4.01276e-06 -0.00363664)
(0.000309317 4.65899e-06 -0.0036091)
(0.00143192 0.00173834 -0.00439578)
(-0.000330418 -0.000932067 -0.00382924)
(-3.74535e-05 2.82163e-05 -0.00380468)
(-0.000160945 0.000939874 -0.00388396)
(0.000651153 2.57139e-05 -0.00559115)
(-0.00151021 -2.58991e-05 -0.00327913)
(-0.00151148 0.000130639 -0.00330742)
(0.003359 2.54186e-05 -0.00314276)
(-0.000158373 0.000995707 -0.00391347)
(0.00110465 -0.00169456 -0.0043443)
(0.00179834 0.00151666 -0.00472688)
(-1.90724e-05 2.12655e-05 -0.00369289)
(1.13031e-05 -2.92577e-05 -0.00391561)
(1.48373e-05 -5.33481e-06 -0.00389949)
(8.89455e-06 -7.74434e-07 -0.00383941)
(4.28447e-06 1.73531e-06 -0.00380044)
(1.65709e-06 1.93291e-06 -0.00376224)
(-4.70587e-07 2.27986e-06 -0.00372718)
(-4.36321e-06 4.96099e-06 -0.00369585)
(-1.06382e-05 9.79704e-06 -0.00368878)
(1.66638e-05 -1.64625e-05 -0.00423337)
(-5.64038e-06 4.35331e-06 -0.00418816)
(-0.000491949 0.000503577 -0.0029315)
(-0.000485295 -0.000207021 -0.00317627)
(5.14609e-05 -7.12516e-05 -0.0042331)
(0.00030927 -0.000388545 -0.00350045)
(1.75284e-05 0.000477889 -0.00310219)
(0.00047168 -0.000265791 -0.00377243)
(-0.000564178 -0.00051804 -0.00371957)
(-4.22569e-05 -0.000708716 -0.00523988)
(-0.000130033 -0.000800864 -0.00390351)
(0.00087465 -3.22833e-05 -0.00513079)
(0.000719445 0.00058703 -0.0036842)
(0.000200004 -0.000442951 -0.003847)
(0.000562555 4.15154e-05 -0.00504269)
(0.000363586 0.000483785 -0.00366867)
(0.00027645 -0.000481853 -0.00376516)
(0.000603987 2.03028e-05 -0.00508825)
(0.000304859 0.000502912 -0.00372551)
(0.000327072 -0.000515662 -0.00369507)
(0.000614503 -1.62906e-05 -0.00511153)
(0.000266884 0.000469678 -0.00377818)
(0.000514774 -0.0005634 -0.00371797)
(0.000698524 -4.48405e-05 -0.00524825)
(0.000791859 -0.000130118 -0.00390646)
(3.40402e-05 0.000862594 -0.00513126)
(-0.000580448 0.000714581 -0.00369343)
(3.1973e-05 -0.000468504 -0.00311277)
(0.000386789 0.000310622 -0.00350084)
(-0.000468614 0.000241437 -0.00313183)
(-0.000502852 -0.000493989 -0.00293696)
(7.19762e-05 5.3332e-05 -0.00423364)
(0.000207688 -0.000483927 -0.00317644)
(0.000114237 0.00037959 -0.00315416)
(-0.000393538 0.000390148 -0.00289802)
(-0.000432545 -0.000430204 -0.00291714)
(8.10318e-05 -6.49726e-06 -0.00422546)
(0.00012874 -0.000401377 -0.00315846)
(0.000155192 0.000402882 -0.00314627)
(-0.000426841 0.000434946 -0.0028997)
(-0.000404963 -0.000390691 -0.00292408)
(8.17087e-05 -1.30495e-06 -0.00422435)
(8.45966e-05 -0.000373373 -0.00316476)
(0.000245774 0.000474052 -0.00313033)
(-0.000468324 -3.08715e-05 -0.00311166)
(0.000611133 -2.33164e-05 -0.00411092)
(-0.00131788 0.00149025 -0.00327881)
(-0.00176632 -0.00116793 -0.00388632)
(0.00152443 0.00129288 -0.00452451)
(-0.00178733 -0.00137525 -0.00442911)
(-7.49722e-05 4.65619e-05 -0.00280728)
(-0.00122786 -0.000885583 -0.00409658)
(1.00912e-05 -1.87264e-05 -0.00290741)
(0.00119626 -7.57244e-06 -0.00393626)
(-0.000287203 -0.000165435 -0.00269387)
(0.00142446 0.000427314 -0.00364276)
(0.000706098 -0.000855002 -0.00376415)
(0.00105295 0.000850686 -0.00349664)
(-0.00157903 -0.00142883 -0.00362292)
(0.000615938 3.269e-06 -0.00420325)
(-0.00136058 0.00145942 -0.00345893)
(0.000906303 -0.00144348 -0.00426475)
(0.00118155 0.00150284 -0.00423487)
(-0.00144724 -0.00153834 -0.00409647)
(3.31761e-05 6.41172e-06 -0.00342054)
(-0.00123043 0.00151554 -0.0040894)
(0.00108547 -0.00155608 -0.004195)
(0.00135112 0.00161395 -0.00420359)
(-0.00143953 -0.00161329 -0.00417627)
(-7.86216e-06 6.0198e-06 -0.00348914)
(-0.00120652 0.00157751 -0.00418109)
(0.00115208 -0.00159338 -0.0042079)
(0.00140749 0.00164478 -0.00421319)
(-0.00144766 -0.00164386 -0.00421416)
(-1.44418e-06 3.74991e-06 -0.00352413)
(-0.00120802 0.00160567 -0.00421806)
(0.00118171 -0.00161632 -0.00424092)
(0.00143516 0.00166518 -0.00424458)
(-0.00146863 -0.00166545 -0.00425095)
(1.97529e-06 3.22413e-06 -0.00355856)
(-0.00122608 0.00162734 -0.00425645)
(0.00119112 -0.00164057 -0.00428363)
(0.00145184 0.00168978 -0.00428929)
(-0.00150533 -0.00168551 -0.00428964)
(3.76268e-06 4.23e-06 -0.00359795)
(-0.00125991 0.00164735 -0.00429845)
(0.00118481 -0.00166892 -0.00433501)
(0.0014602 0.00171977 -0.00434474)
(-0.00155621 -0.00170097 -0.00433036)
(6.391e-06 5.59902e-06 -0.00364101)
(-0.00130173 0.00166005 -0.004343)
(0.00116103 -0.00169406 -0.00438579)
(0.00145769 0.00174521 -0.00440069)
(-0.00160237 -0.00168675 -0.00437788)
(1.23294e-05 7.23295e-06 -0.00367381)
(-0.00132455 0.00163851 -0.00439599)
(0.00110456 -0.00169785 -0.00436369)
(0.00137877 0.00171204 -0.00437792)
(-0.000298466 -0.000932103 -0.00387534)
(0.000622139 -4.30854e-06 -0.0055941)
(-0.00149883 -7.05519e-05 -0.00328025)
(-0.00152848 2.98081e-05 -0.00326872)
(0.00337932 -2.79279e-05 -0.00315354)
(-0.00011786 -1.68939e-06 -0.00443404)
(-0.000128905 1.08036e-05 -0.00442198)
(7.55797e-05 1.44546e-05 -0.00363693)
(0.000333966 1.16731e-07 -0.00361024)
(0.00142281 0.001742 -0.00438247)
(-0.000260159 -0.000927877 -0.00385973)
(-2.29181e-05 7.66059e-06 -0.00375872)
(-0.000290823 0.00110658 -0.0039097)
(0.000592868 -0.000151409 -0.00557512)
(-0.00152696 -4.5772e-05 -0.00329798)
(-0.00150213 3.79282e-05 -0.00326793)
(0.00335988 -5.4915e-05 -0.00315945)
(-0.000191407 0.000936931 -0.00386113)
(0.0011049 -0.00171545 -0.00436893)
(-3.87201e-05 9.99978e-06 -0.00380317)
(1.89644e-05 7.64505e-06 -0.00384526)
(1.77959e-05 2.14705e-05 -0.00389271)
(1.13475e-05 1.37746e-05 -0.0038388)
(5.83464e-06 7.27917e-06 -0.00380219)
(2.4914e-06 3.23662e-06 -0.00376382)
(-1.63223e-08 2.32296e-07 -0.00372814)
(-4.0237e-06 -4.31224e-06 -0.00369626)
(-9.66051e-06 -1.08414e-05 -0.00368868)
(1.66314e-05 1.608e-05 -0.0042332)
(-5.17158e-06 -5.80138e-06 -0.00418922)
(0.000390881 -0.00040536 -0.00291864)
(-0.000433886 -0.000431777 -0.00290964)
(0.000432378 -0.000431975 -0.00290738)
(-0.000392687 -0.000406295 -0.00291844)
(7.99641e-07 8.31049e-05 -0.00422384)
(0.00039311 0.000142958 -0.00314603)
(-0.000371474 9.00716e-05 -0.00316367)
(-2.06803e-06 -0.000545744 -0.00318228)
(-0.000467731 0.000286067 -0.00376422)
(2.67137e-07 -0.000578546 -0.0052895)
(-0.000393181 0.000143289 -0.00314691)
(-2.97304e-07 8.32722e-05 -0.00422401)
(0.000370537 9.02595e-05 -0.00316272)
(1.45753e-05 -0.00057176 -0.00525982)
(0.000436851 0.000199028 -0.00383558)
(-3.56809e-05 0.000547066 -0.00502585)
(-0.000472322 0.000353086 -0.00366609)
(1.53884e-06 -0.000545525 -0.00318305)
(0.000467096 0.000286663 -0.0037639)
(-4.73693e-07 0.000593869 -0.00502695)
(-6.6035e-08 0.000829279 -0.00268411)
(0.000827555 0.000875955 -0.00360658)
(-0.00142329 -0.00143574 -0.00346106)
(0.0014216 -0.0014325 -0.00345706)
(-0.00140603 -0.0015417 -0.00362404)
(0.0014819 0.00111986 -0.0042318)
(-0.00151857 -0.00139128 -0.00409719)
(0.00159159 0.00127979 -0.0042011)
(-0.00159099 -0.00137377 -0.00417638)
(0.00162162 0.00133319 -0.00421203)
(-0.00162067 -0.00137787 -0.00421374)
(0.00164172 0.00136019 -0.00424432)
(-0.00164207 -0.00139634 -0.00425068)
(0.00166615 0.00137664 -0.00428994)
(-0.00166181 -0.00143109 -0.00428934)
(0.00169621 0.00138581 -0.00434698)
(-0.00167721 -0.00148185 -0.00432906)
(0.00172303 0.00138827 -0.00440572)
(-0.0016646 -0.00153335 -0.00437337)
(0.00171929 0.00137653 -0.00440552)
(-0.000925185 -0.000300446 -0.00382579)
(1.96616e-05 0.000662991 -0.00559196)
(0.000934062 -0.000204762 -0.00389898)
(2.5279e-05 -3.27383e-05 -0.00380333)
(-0.00167708 0.00119175 -0.00435356)
(0.0016202 -0.00141201 -0.00440658)
(8.46404e-06 1.65853e-05 -0.00367574)
(-0.00167355 0.00125884 -0.00438444)
(0.00163916 -0.00139964 -0.00434841)
(5.72081e-06 8.63974e-06 -0.00364272)
(-0.00164852 0.00128522 -0.00433691)
(0.00162571 -0.00135939 -0.00430059)
(3.77965e-06 4.90291e-06 -0.00359916)
(-0.0016204 0.00129008 -0.00428627)
(0.00160557 -0.00132419 -0.00425683)
(2.60483e-06 2.39993e-06 -0.00355924)
(-0.00159637 0.00127827 -0.00424361)
(0.00158403 -0.00130365 -0.00421731)
(2.65967e-06 -1.5875e-06 -0.0035244)
(-0.0015739 0.00124671 -0.00421151)
(0.00155633 -0.00129773 -0.00417868)
(4.19731e-06 -8.51382e-06 -0.00348909)
(-0.00153783 0.00117596 -0.00420083)
(0.00149422 -0.00131359 -0.00408502)
(4.7479e-06 3.14986e-05 -0.00341961)
(-0.00142493 0.000981284 -0.00427056)
(8.51727e-07 -9.06016e-05 -0.00350082)
(0.00142448 0.000980432 -0.00426579)
(-0.0014951 -0.00131569 -0.0040896)
(-6.69241e-06 3.15542e-05 -0.00341963)
(-0.00147967 0.00112571 -0.00423611)
(0.00140393 -0.00153284 -0.00362316)
(-2.64101e-06 0.000614986 -0.00420233)
(-0.0008346 0.00101656 -0.00348906)
(-5.42232e-05 0.000759726 -0.00271682)
(0.000848944 0.000711153 -0.00377229)
(-0.00147397 -0.00135223 -0.00328434)
(0.0014249 0.000888269 -0.00428413)
(-0.00150283 -0.00126548 -0.00410537)
(0.00151316 0.00112198 -0.00419313)
(-0.00154418 -0.00124599 -0.00420056)
(0.00154767 0.00119831 -0.00420966)
(-0.00156029 -0.00125094 -0.00422927)
(0.00157117 0.00123031 -0.0042476)
(-0.00157584 -0.00127182 -0.00426231)
(0.00159975 0.00124429 -0.00429581)
(-0.00159168 -0.00131176 -0.00429897)
(0.00163815 0.00124878 -0.00436026)
(-0.0015978 -0.00135957 -0.00432423)
(0.00167882 0.00124287 -0.00443515)
(-0.00156101 -0.00136333 -0.00433244)
(0.00168721 0.00120008 -0.00441733)
(-0.000911875 -0.000195013 -0.00384693)
(-0.000197261 0.000480771 -0.00551156)
(0.000395866 -0.000539517 -0.00406275)
(4.96245e-05 -6.92538e-06 -0.00366582)
(-0.00156629 0.0016458 -0.00469112)
(0.00140102 -0.00199712 -0.00473277)
(1.92396e-05 3.73567e-05 -0.00355756)
(-0.00152363 0.00178524 -0.0047136)
(0.00146406 -0.00192764 -0.00466404)
(2.42641e-06 1.96189e-05 -0.0035273)
(-0.00145957 0.00179605 -0.00465324)
(0.00144582 -0.001838 -0.00460468)
(-2.13332e-06 8.68972e-06 -0.00348118)
(-0.00142622 0.00177711 -0.00459001)
(0.00142102 -0.00178531 -0.00455525)
(-2.80405e-06 3.36462e-06 -0.00344142)
(-0.00140798 0.00175986 -0.00454364)
(0.00140603 -0.00176 -0.00451873)
(-7.39544e-06 -1.96866e-06 -0.00340986)
(-0.00139301 0.00174313 -0.00451018)
(0.00139864 -0.00174789 -0.00448714)
(-1.81533e-05 -6.09792e-06 -0.00338094)
(-0.0013659 0.00170389 -0.00450146)
(0.00137355 -0.00175481 -0.00443065)
(-4.14626e-05 3.98984e-05 -0.00331935)
(-0.00126668 0.00150924 -0.00452384)
(0.00115853 -0.00174264 -0.0038856)
(2.49108e-05 0.000611318 -0.00410957)
(-0.000419601 0.00141993 -0.00364151)
(0.0007141 0.00126174 -0.00384669)
(0.00117432 -0.000633435 -0.00335662)
(3.6985e-05 0.0012041 -0.00394908)
(0.000146058 -0.00028572 -0.00268626)
(-0.000214637 0.000226444 -0.00306593)
(0.000601201 0.00144219 -0.00348894)
(-0.00185439 -0.00124822 -0.0032031)
(0.00140882 0.00116592 -0.0043839)
(-0.0017692 -0.00109946 -0.004276)
(-0.00119135 0.0017612 -0.00411959)
(-0.00147311 -0.00155063 -0.00409195)
(3.90289e-05 -1.22707e-05 -0.00341112)
(0.000968631 -0.0017326 -0.00423703)
(0.0010714 0.00147793 -0.0042987)
(-0.00154056 -0.00151013 -0.00333387)
(0.000595536 4.43246e-05 -0.00422015)
(-0.00138246 0.00158985 -0.00370829)
(-0.000102843 7.09755e-05 -0.00352864)
(7.39301e-05 3.06771e-05 -0.0034683)
(-0.000559298 -0.000449677 -0.00510712)
(4.78522e-05 4.40938e-05 -0.00411977)
(-2.25813e-05 -3.61038e-05 -0.00390588)
(-0.000593284 2.35976e-05 -0.0052438)
(6.01912e-05 -8.63078e-06 -0.00376258)
(-9.59967e-05 -3.07853e-06 -0.00350794)
(-0.00140277 0.0014536 -0.00358078)
(-0.00152138 -0.00145641 -0.00348005)
(0.00109905 0.00145923 -0.00427031)
(-0.00142725 -0.00151937 -0.00408495)
(1.77348e-05 2.70727e-07 -0.00346279)
(0.0013052 0.00157103 -0.00420382)
(-0.00142638 -0.00158521 -0.00417865)
(0.00138205 0.00160868 -0.00421375)
(-0.0014374 -0.00161395 -0.00421744)
(8.75673e-06 1.18816e-06 -0.00348672)
(0.00141865 0.00163327 -0.00424708)
(-0.00146073 -0.00163431 -0.00425457)
(0.00143705 0.00166057 -0.00429278)
(-0.00149913 -0.00165171 -0.004293)
(5.42565e-05 1.46119e-06 -0.00354675)
(0.00144268 0.00169226 -0.00434862)
(-0.00154446 -0.00166111 -0.00433182)
(0.00143104 0.00171725 -0.0044023)
(-0.00156811 -0.0016393 -0.00438083)
(0.000323934 -2.6556e-06 -0.00361401)
(7.47027e-05 2.27648e-06 -0.00364068)
(4.68156e-05 3.75603e-06 -0.00360107)
(4.93882e-05 1.24009e-05 -0.00360156)
(2.27587e-05 6.93991e-06 -0.00356639)
(5.71392e-05 4.62911e-06 -0.00355343)
(0.00149136 0.00170756 -0.00436288)
(-0.00158486 -0.00165875 -0.00433234)
(1.48067e-05 8.71772e-06 -0.00363598)
(-0.00128548 0.00196198 -0.00436999)
(0.00106665 -0.00195046 -0.00435425)
(0.00148661 0.00174702 -0.00442629)
(-0.0015739 -0.00162279 -0.00435782)
(3.11378e-05 1.69452e-05 -0.00366193)
(-0.00138197 0.00197158 -0.00444137)
(0.000968157 -0.00188638 -0.00429318)
(0.00193541 0.00120271 -0.0047834)
(-0.00022455 -0.000840682 -0.00369427)
(3.9513e-05 -0.00135461 -0.00547363)
(-0.00163923 -9.28306e-05 -0.00333681)
(-0.00151342 -1.96234e-05 -0.00319099)
(0.00318196 -0.000489452 -0.00323374)
(-0.000198637 -0.000126136 -0.00427197)
(5.16258e-05 3.67833e-05 -0.00342335)
(8.71733e-05 0.000888918 -0.00305057)
(-0.00095816 0.00115672 -0.00444529)
(0.000217634 9.13521e-05 -0.00296639)
(0.000743253 -0.00186754 -0.00425348)
(-0.000769397 0.00141144 -0.00437932)
(6.26982e-05 1.3313e-05 -0.00292476)
(0.00078861 -0.00156357 -0.00428883)
(-0.000714912 0.00142251 -0.00430306)
(9.66647e-06 -3.79177e-06 -0.00288484)
(0.000759516 -0.00145494 -0.00427466)
(-0.000725637 0.00142584 -0.00426044)
(-1.51985e-06 7.80549e-09 -0.00285487)
(0.000719538 -0.00139206 -0.00422133)
(-0.000698091 0.00140849 -0.00419713)
(-1.86988e-05 -1.04075e-05 -0.00283317)
(0.000743515 -0.00138028 -0.00420438)
(-0.000670335 0.00145315 -0.00416787)
(-4.54495e-05 -2.51759e-05 -0.00282)
(0.00077985 -0.00130866 -0.00417036)
(-0.000524871 0.00147656 -0.00411714)
(-7.56363e-05 -9.2922e-05 -0.00280552)
(0.000919021 -0.00116328 -0.00411745)
(0.000348754 0.000376959 -0.00315313)
(0.000257849 0.000567047 -0.00304)
(-6.76378e-05 -0.000700485 -0.0037898)
(-3.51731e-05 5.54884e-06 -0.003311)
(0.000362714 0.00114529 -0.00369303)
(-0.000159389 -0.000977637 -0.00383855)
(0.00163666 0.001147 -0.0042803)
(-0.00175302 -0.00112438 -0.0043361)
(0.00171892 0.00114543 -0.0043113)
(-0.00176132 -0.00113751 -0.00435197)
(-0.00114028 0.0018508 -0.00422037)
(-0.00147875 -0.0016223 -0.00422907)
(-1.99072e-06 -3.86843e-06 -0.00351699)
(0.00112482 -0.00184868 -0.00422089)
(0.00141918 0.00161105 -0.00421836)
(-0.0014676 -0.00160101 -0.00419487)
(-6.96852e-06 -9.62002e-06 -0.00348431)
(-0.00113707 0.00182174 -0.00418219)
(8.86142e-06 5.38802e-08 -0.00347375)
(5.52242e-07 -4.40159e-06 -0.00328705)
(1.21662e-05 -2.85091e-06 -0.00328068)
(-1.47723e-06 -0.000104873 -0.00291631)
(2.35314e-05 2.17402e-05 -0.00340114)
(9.3656e-05 0.000145618 -0.00330053)
(8.64491e-05 0.000158649 -0.00316614)
(0.00015609 6.45067e-05 -0.00369154)
(-4.87511e-05 2.81669e-05 -0.00366539)
(2.36452e-05 9.17034e-05 -0.00361627)
(0.000654057 6.48044e-05 -0.00364563)
(0.0010385 -8.33796e-05 -0.00282982)
(0.000866201 0.00135052 -0.00461179)
(0.00029288 0.000432926 -0.00255451)
(0.00131787 9.4049e-05 -0.00343077)
(0.000524295 0.000323336 -0.00364482)
(0.000247222 6.85508e-05 -0.0035671)
(7.5126e-05 1.98925e-05 -0.00359719)
(4.50081e-05 1.39153e-05 -0.00371148)
(-2.55382e-05 5.4365e-06 -0.00365608)
(-1.92207e-05 3.49013e-06 -0.00367168)
(1.06333e-05 3.05121e-06 -0.00374437)
(2.41928e-05 2.4024e-06 -0.00361992)
(-0.000208594 -0.00103758 -0.00385808)
(-2.78241e-06 3.98185e-07 -0.00339713)
(0.000242415 0.00106169 -0.00383099)
(-0.000223654 -0.00105529 -0.00386084)
(0.00175436 0.00115148 -0.0043627)
(-0.00178479 -0.00115052 -0.00437721)
(0.00178182 0.00117392 -0.00441603)
(-0.00183853 -0.00116453 -0.00440978)
(-0.00120583 0.00191465 -0.00430933)
(-0.00154414 -0.00165482 -0.00430128)
(6.4156e-06 3.02892e-06 -0.0035919)
(0.00113541 -0.0018903 -0.00429026)
(0.00148096 0.00166761 -0.00430126)
(-0.00150373 -0.0016397 -0.00426399)
(2.34068e-06 -2.72201e-07 -0.0035513)
(-0.00116188 0.00187796 -0.00426175)
(1.57138e-05 3.88653e-06 -0.00352257)
(7.03402e-06 3.29193e-06 -0.00334103)
(1.47864e-06 -8.50672e-07 -0.00331013)
(7.28032e-07 -1.02749e-05 -0.00294028)
(1.80375e-06 -9.41505e-06 -0.0034331)
(5.63286e-06 1.37935e-05 -0.00339508)
(8.59579e-06 1.00305e-05 -0.00325023)
(6.1681e-06 -1.09719e-06 -0.00340754)
(1.93095e-05 4.80474e-05 -0.00329461)
(2.91968e-05 3.44498e-05 -0.00316319)
(0.000282884 0.00107753 -0.00379446)
(-4.5954e-06 4.72113e-06 -0.00337192)
(-2.26945e-06 -4.92758e-05 -0.00292193)
(-8.98055e-06 -2.56675e-06 -0.00367616)
(1.70467e-06 -7.44325e-05 -0.00368424)
(3.80276e-06 8.06942e-06 -0.00363178)
(-3.70044e-05 0.000711079 -0.00362691)
(8.59113e-05 0.00135745 -0.00342306)
(-0.000990198 0.00249499 -0.00332215)
(-2.76608e-06 0.000260834 -0.00330235)
(1.34159e-05 -3.77032e-05 -0.00290005)
(6.40701e-07 -1.65752e-05 -0.00362017)
(-1.33898e-05 -6.69022e-05 -0.00357322)
(0.00151886 -0.00138249 -0.00409491)
(-1.57849e-07 5.4957e-06 -0.0034575)
(-0.00159085 0.0012894 -0.00420439)
(0.00153772 0.00117357 -0.00419707)
(-0.00155637 -0.00129837 -0.00418207)
(-5.41922e-06 -8.43458e-06 -0.00348969)
(0.0015934 -0.00136874 -0.0041752)
(1.68423e-07 9.17675e-06 -0.00345976)
(-0.00162129 0.0013415 -0.00421391)
(0.00157515 0.00124469 -0.00420971)
(-0.00158278 -0.00130296 -0.0042185)
(-2.22604e-06 -1.4407e-06 -0.00352536)
(0.00162471 -0.00137785 -0.00421481)
(1.10877e-06 7.55288e-06 -0.00347944)
(-0.00164077 0.00136398 -0.00424465)
(0.00159964 0.00127827 -0.00424496)
(-0.0016023 -0.00132296 -0.00425478)
(1.90285e-07 2.64302e-06 -0.00356068)
(0.00164838 -0.00140177 -0.00425451)
(2.00431e-06 2.22159e-05 -0.00350727)
(-0.00166447 0.0013732 -0.00428799)
(0.00162651 0.00129421 -0.0042921)
(-0.0016194 -0.00135903 -0.00429277)
(2.54979e-06 5.39688e-06 -0.00360115)
(0.0016715 -0.0014441 -0.00429773)
(1.77536e-06 6.58464e-05 -0.00353893)
(-0.00169324 0.00136614 -0.00433835)
(0.00165803 0.00129903 -0.00435099)
(-0.0016286 -0.00140509 -0.00432891)
(6.0607e-06 9.48635e-06 -0.00364467)
(0.00168864 -0.00150033 -0.00434604)
(-2.94576e-06 0.000164835 -0.00357198)
(-0.00171594 0.00133088 -0.0043807)
(0.00168421 0.00129397 -0.00441072)
(-0.00160753 -0.0014375 -0.00437102)
(9.61842e-06 1.78972e-05 -0.00367459)
(0.00166597 -0.00153325 -0.00440255)
(-1.46086e-05 0.000375307 -0.00359689)
(-0.00170509 0.00126137 -0.00435231)
(0.00168097 0.00126127 -0.00439405)
(-0.000926726 -0.000240027 -0.00386916)
(-1.18231e-06 -3.1736e-05 -0.00379652)
(0.000920133 -0.000278434 -0.00386985)
(-5.68884e-05 0.00335622 -0.00317334)
(-0.000119286 -0.00150747 -0.00328112)
(-0.000123348 -0.00154037 -0.00315377)
(-0.000131698 0.00248112 -0.0029795)
(-0.00162621 0.000645635 -0.004258)
(0.000401921 0.000265717 -0.0030204)
(0.000353056 -0.00229417 -0.00406755)
(-0.000137706 -0.000476215 -0.00333096)
(-0.000283425 -0.00027932 -0.00319156)
(-0.000138781 0.0011689 -0.00415559)
(-0.00182452 -0.00122051 -0.00425586)
(0.000385748 -2.14144e-05 -0.00358964)
(-0.000478628 2.67087e-05 -0.00378844)
(-0.000791776 -0.000156119 -0.00379005)
(-0.000282539 -0.00018715 -0.00379494)
(-0.000228141 -2.0501e-05 -0.00384634)
(-0.000242466 4.97371e-05 -0.00377167)
(-0.000106115 2.88032e-05 -0.00373423)
(-4.84197e-05 1.00397e-05 -0.00382373)
(1.00605e-05 -1.66518e-05 -0.00369729)
(-5.60212e-06 5.49589e-06 -0.00378163)
(-4.18953e-05 1.13773e-05 -0.00369999)
(-4.99203e-05 3.34416e-06 -0.00367338)
(-3.03537e-05 5.43819e-07 -0.00364964)
(-5.26952e-05 -2.61456e-06 -0.00363782)
(-9.92238e-05 -9.38243e-06 -0.00364956)
(1.58978e-05 -1.8139e-05 -0.00359428)
(0.000768167 -6.29984e-05 -0.00359331)
(0.000900019 -3.37216e-05 -0.00273282)
(0.000882664 0.000878311 -0.00373321)
(0.00101697 -0.000878656 -0.00330425)
(0.00125829 1.05646e-05 -0.0034382)
(0.00119798 5.67972e-06 -0.00345434)
(0.000936551 -0.000892485 -0.00351903)
(0.000942721 0.000879374 -0.00363618)
(0.00061525 -2.07677e-06 -0.00421306)
(-0.000547092 3.65899e-06 -0.00317571)
(0.000176574 -3.97328e-06 -0.00391287)
(-6.41837e-05 -6.66097e-05 -0.00386293)
(-4.49486e-05 -4.22034e-05 -0.00390445)
(0.000160271 0.000159466 -0.00396283)
(-0.000476958 1.7253e-05 -0.00310467)
(-1.29902e-06 0.000183504 -0.00390031)
(-7.45736e-07 -6.50773e-05 -0.00391344)
(-1.53734e-06 -7.98109e-05 -0.00389499)
(1.31322e-07 7.7018e-08 -0.00421704)
(-0.000301327 0.000293992 -0.00285038)
(-0.000343322 -0.000341775 -0.00286917)
(-0.00034026 0.000343168 -0.00286411)
(-0.000305013 -0.000292874 -0.00285948)
(0.000302378 -0.000296491 -0.0028503)
(-0.000256626 -0.000253433 -0.00284016)
(9.54282e-06 9.4666e-06 -0.0042267)
(0.00034184 0.000340305 -0.00285952)
(-0.000294908 0.000306207 -0.00285645)
(-0.000296099 -0.00030564 -0.00285745)
(9.46944e-06 -9.11498e-06 -0.00422695)
(0.000340575 -0.000342864 -0.00286429)
(-9.97851e-09 -8.03533e-09 -0.0042414)
(6.81511e-08 6.7833e-08 -0.00425064)
(1.64937e-07 2.17274e-05 -0.0042417)
(1.81646e-07 6.14266e-05 -0.00376273)
(-9.02153e-06 5.49641e-05 -0.00375593)
(1.20687e-05 -0.00012271 -0.00348964)
(-6.14305e-06 1.95289e-06 -0.00345289)
(-3.36838e-06 -9.6837e-08 -0.00346238)
(-3.74148e-07 2.69062e-06 -0.00348928)
(1.9992e-06 9.4547e-06 -0.00352167)
(4.95098e-06 2.48172e-05 -0.00355757)
(2.01129e-05 1.06944e-05 -0.0033745)
(1.44834e-05 9.22283e-05 -0.00299952)
(6.26487e-06 -7.82199e-05 -0.00349053)
(3.58122e-05 -1.14655e-05 -0.00345124)
(-1.08984e-05 4.9416e-05 -0.00330024)
(0.000215912 0.00113799 -0.00392624)
(-0.000307887 -0.00104624 -0.00392978)
(0.00182956 0.00120649 -0.00450464)
(-0.0018987 -0.00119582 -0.00439116)
(0.00190275 0.0012341 -0.00465549)
(-3.87119e-05 -3.06818e-05 -0.00358288)
(-0.000558219 -0.00109657 -0.00385054)
(-8.44193e-05 2.859e-05 -0.00327246)
(0.000153823 0.00121798 -0.00400984)
(-1.564e-05 -5.52894e-06 -0.00352984)
(-3.32623e-05 -5.58076e-05 -0.00374866)
(-1.53269e-05 1.12965e-05 -0.00382552)
(-0.000112299 7.82872e-06 -0.00370308)
(-0.000230894 1.55147e-05 -0.00373765)
(-0.000458523 1.83371e-05 -0.00379017)
(-0.00104827 -1.33785e-05 -0.0039778)
(-0.0010722 -0.000186156 -0.00392791)
(-0.00265732 0.000638014 -0.00387294)
(-0.00124386 -0.000285883 -0.00365448)
(-0.00108624 -0.00121468 -0.00349345)
(-3.60769e-05 -0.000155783 -0.00353467)
(-0.000427908 -0.000150555 -0.00368943)
(0.000339328 -0.00241717 -0.00292371)
(-0.00215859 -0.000667428 -0.00321029)
(-0.00129155 8.521e-05 -0.00436202)
(-0.000605604 -0.00097784 -0.00394952)
(0.000975631 0.000721887 -0.00411715)
(7.85305e-05 3.33484e-05 -0.00422327)
(5.03345e-05 4.03192e-05 -0.00279028)
(-0.00101894 0.000873776 -0.00348731)
(0.00107798 0.000732856 -0.00367684)
(6.37011e-06 0.000102172 -0.00434942)
(-0.000127909 -8.21316e-05 -0.00289043)
(-0.00111898 0.00097126 -0.00363127)
(0.00108312 0.000872915 -0.00369688)
(1.9035e-06 0.00011005 -0.00437039)
(-0.000142521 -9.89009e-05 -0.00290211)
(-0.00109203 0.000881475 -0.00358566)
(0.00107957 0.000995362 -0.00374056)
(9.27482e-06 0.000102584 -0.00435466)
(-0.000233295 -0.00022756 -0.00295779)
(-0.00104197 0.000731393 -0.00354347)
(0.000769795 0.00101594 -0.00396147)
(-0.000616147 -0.000352655 -0.00541699)
(0.000506667 0.000533138 -0.00406051)
(0.00038425 -0.000464696 -0.00396288)
(0.00113131 0.000496686 -0.00498537)
(-0.000531593 -0.00196034 -0.00483639)
(-0.000306878 -0.00106436 -0.00393202)
(0.000168021 0.000191023 -0.00296855)
(0.00067854 -0.000483902 -0.00426947)
(-0.00221028 0.00104589 -0.00399807)
(-0.000122153 -6.32387e-05 -0.00373192)
(-0.00129355 -0.00171337 -0.00378921)
(0.00113434 0.000908768 -0.00377742)
(0.00104784 -1.80864e-05 -0.0028533)
(0.000997555 -0.00107882 -0.00389937)
(0.00125289 -0.00106692 -0.00438294)
(0.000602638 -0.00154995 -0.00313054)
(0.000134484 0.000644236 -0.00415696)
(0.00048223 -0.00084985 -0.00320527)
(0.000727702 -0.000545747 -0.00332358)
(0.00119907 0.000941753 -0.00447581)
(-0.000550249 -0.00193646 -0.00422128)
(0.000114657 -0.000220823 -0.00340426)
(0.000878737 0.0013552 -0.00444566)
(-0.000746923 -0.00165477 -0.00429104)
(1.273e-06 -4.60929e-05 -0.00345086)
(0.000759219 0.00143302 -0.00436275)
(-0.000760959 -0.00149699 -0.00429185)
(-9.24137e-06 -3.32175e-08 -0.00341991)
(0.000727864 0.00142757 -0.00429916)
(-0.000736164 -0.0014275 -0.00425967)
(-5.2962e-06 4.4839e-06 -0.00339014)
(0.000715786 0.00140664 -0.00424763)
(-0.000721834 -0.00140013 -0.00422424)
(-4.6177e-06 5.58955e-06 -0.00335747)
(0.000707146 0.0013936 -0.00420994)
(-0.000721169 -0.00138617 -0.00419182)
(-9.94705e-06 1.95355e-05 -0.0033395)
(0.000678435 0.00139135 -0.00417427)
(-0.000757287 -0.00136943 -0.00416949)
(-5.95734e-05 8.35489e-05 -0.00326619)
(0.000573161 0.00142817 -0.0041409)
(-0.000874101 -0.00122251 -0.004094)
(-0.000325349 0.000343359 -0.00317409)
(-1.3589e-05 0.0011851 -0.00393798)
(-0.00117592 -0.000660993 -0.00333943)
(-0.000728037 0.00125614 -0.00384178)
(0.000424817 0.00141881 -0.00363715)
(-0.00115932 -0.00176035 -0.00388427)
(0.00128407 0.00150433 -0.00452531)
(-0.00136511 -0.00177138 -0.00442806)
(3.84068e-05 4.14804e-05 -0.00331935)
(-0.00142826 0.000885401 -0.00429219)
(0.00147167 -0.0013529 -0.00327755)
(-2.22892e-05 0.00061062 -0.00411134)
(-0.000848073 0.000707715 -0.00377073)
(5.41714e-05 0.000766132 -0.00271734)
(0.000835875 0.00101647 -0.00348464)
(-0.000826846 0.000874207 -0.00360901)
(2.95351e-06 0.00061454 -0.00420331)
(4.90328e-06 0.00118416 -0.00344354)
(1.44547e-06 0.000705407 -0.00361639)
(1.17159e-06 -7.04e-06 -0.00362516)
(1.81345e-06 -0.000105522 -0.00367437)
(1.7085e-06 -6.17117e-05 -0.00366099)
(7.70503e-07 -4.02695e-05 -0.0036703)
(1.50296e-06 -2.72856e-05 -0.0036844)
(3.62764e-06 -4.99484e-05 -0.00370979)
(3.09263e-06 -2.81837e-05 -0.00346281)
(1.42072e-05 3.59613e-06 -0.00336025)
(1.41994e-06 2.11628e-05 -0.00322495)
(0.000231877 0.00107576 -0.00389917)
(-0.000243653 -0.00104913 -0.00392241)
(-6.42465e-06 -1.02731e-06 -0.00347021)
(-1.20087e-06 9.03152e-07 -0.00342712)
(1.21966e-05 -1.27346e-06 -0.00365388)
(3.69504e-06 2.65058e-07 -0.00371567)