/*--------------------------------*- C++ -*----------------------------------*\
| =========                 |                                                 |
| \\      /  F ield         | OpenFOAM: The Open Source CFD Toolbox           |
|  \\    /   O peration     | Version:  2306                                  |
|   \\  /    A nd           | Website:  www.openfoam.com                      |
|    \\/     M anipulation  |                                                 |
\*---------------------------------------------------------------------------*/
FoamFile
{
    version     2.0;
    format      ascii;
    arch        "LSB;label=32;scalar=64";
    class       volVectorField;
    location    "0.7";
    object      flux;
}
// * * * * * * * * * * * * * * * * * * * * * * * * * * * * * * * * * * * * * //

dimensions      [0 1 -1 1 0 0 0];

internalField   nonuniform List<vector> 
5322
(
(-1.96663e-06 4.95212e-06 -6.54092e-06)
(1.58935e-07 6.96994e-07 -5.40606e-06)
(1.47527e-07 2.57877e-07 -3.7061e-06)
(-4.32279e-09 2.11034e-07 -3.98705e-06)
(-8.63556e-09 1.97085e-07 -2.23618e-06)
(-5.11368e-09 1.33466e-07 -1.1125e-06)
(-2.18458e-09 7.12284e-08 -4.9075e-07)
(-7.57387e-10 3.2219e-08 -1.92469e-07)
(-2.25032e-10 1.28349e-08 -6.75943e-08)
(-4.15139e-11 4.49444e-09 -2.176e-08)
(1.44071e-11 1.09198e-09 -7.10685e-09)
(7.41274e-11 -8.19783e-10 -3.71612e-09)
(6.51898e-11 -4.88478e-10 -1.92944e-09)
(-6.59364e-10 -5.08526e-10 -3.15702e-09)
(6.61008e-11 -5.54853e-10 -3.80501e-09)
(1.8671e-09 1.67646e-09 -4.23023e-09)
(-1.32142e-09 2.02445e-09 -4.7066e-09)
(2.49595e-10 6.45951e-12 -4.576e-09)
(-1.35298e-09 2.30365e-09 -8.76377e-09)
(3.29298e-09 -5.91324e-09 -1.55481e-08)
(-3.8426e-09 8.91516e-09 -3.05112e-08)
(1.16048e-08 -1.89547e-08 -5.25213e-08)
(-1.12689e-08 2.86558e-08 -9.73922e-08)
(3.48511e-08 -5.68355e-08 -1.59944e-07)
(-3.58129e-08 8.48238e-08 -2.7752e-07)
(8.97098e-08 -1.48919e-07 -4.26291e-07)
(-8.85983e-08 2.10874e-07 -6.93837e-07)
(2.11322e-07 -3.56942e-07 -1.0163e-06)
(-2.1552e-07 4.85423e-07 -1.54689e-06)
(4.304e-07 -7.35759e-07 -2.12138e-06)
(-4.07434e-07 9.5638e-07 -3.02337e-06)
(8.28305e-07 -1.36087e-06 -3.94486e-06)
(-5.97825e-07 1.73584e-06 -5.22384e-06)
(1.49423e-06 -1.95412e-06 -6.28451e-06)
(2.39366e-07 2.14316e-06 -7.34758e-06)
(2.56005e-06 -1.36519e-06 -6.88055e-06)
(1.82277e-06 2.79752e-06 -8.39876e-06)
(-7.23135e-07 3.32576e-06 -8.0691e-06)
(1.96689e-06 1.69971e-06 -8.30197e-06)
(-1.22618e-07 1.96468e-06 -6.29366e-06)
(-1.87247e-06 2.45962e-06 -7.67202e-06)
(1.87051e-06 2.07602e-06 -7.92079e-06)
(-1.12685e-07 2.28471e-06 -6.16167e-06)
(-1.98647e-06 2.30126e-06 -7.91628e-06)
(1.98291e-06 2.19541e-06 -7.83576e-06)
(-6.42359e-08 2.32981e-06 -6.2771e-06)
(-2.10848e-06 2.2311e-06 -8.03729e-06)
(1.87898e-06 2.38569e-06 -7.61048e-06)
(-3.78116e-08 2.37545e-06 -6.22809e-06)
(-2.21727e-06 2.1281e-06 -7.96207e-06)
(-2.21533e-06 2.70073e-06 -9.2618e-06)
(-3.15341e-06 1.12426e-06 -5.96614e-06)
(-1.09281e-06 1.37104e-06 -8.54031e-06)
(1.89451e-06 -3.99192e-06 -7.15187e-06)
(-1.24689e-07 -1.75043e-07 -6.05972e-06)
(-3.05636e-06 -2.27362e-06 -6.73744e-06)
(-9.75898e-08 1.30753e-06 -8.69879e-06)
(2.89598e-06 -2.94395e-06 -6.58508e-06)
(-3.28101e-08 -1.15744e-07 -6.01726e-06)
(-2.89059e-06 -2.55416e-06 -6.69591e-06)
(-1.0846e-08 1.32667e-06 -8.77452e-06)
(2.81835e-06 -2.8889e-06 -6.67145e-06)
(-1.27881e-08 -1.02128e-07 -6.0112e-06)
(-2.84091e-06 -2.53634e-06 -6.53427e-06)
(6.08596e-09 1.33366e-06 -8.78148e-06)
(2.78389e-06 -3.00243e-06 -6.9246e-06)
(4.60186e-08 -1.51828e-07 -6.00076e-06)
(-2.81668e-06 -2.47001e-06 -6.22724e-06)
(1.71949e-07 1.35981e-06 -8.6567e-06)
(2.33572e-06 -3.39721e-06 -7.43609e-06)
(1.71952e-07 8.34488e-08 -5.02677e-06)
(-2.00299e-06 2.33712e-06 -7.02202e-06)
(2.2801e-06 1.2896e-06 -6.6782e-06)
(-2.33998e-06 1.81737e-06 -6.574e-06)
(2.25028e-06 1.34358e-06 -6.62779e-06)
(-2.29261e-06 1.71481e-06 -6.59609e-06)
(2.29465e-06 1.42192e-06 -6.59191e-06)
(-2.29857e-06 1.7119e-06 -6.58102e-06)
(2.62567e-06 1.4609e-06 -6.71088e-06)
(-1.95639e-06 2.07806e-06 -6.46164e-06)
(8.79349e-07 1.13026e-07 -6.4317e-06)
(-1.5895e-06 9.35897e-07 -5.47566e-06)
(-1.11464e-06 1.32931e-06 -5.68506e-06)
(1.57542e-06 2.02182e-06 -6.92823e-06)
(1.07437e-07 -9.94464e-08 -4.21478e-06)
(-5.08338e-07 -6.21377e-07 -5.99982e-06)
(1.25041e-06 2.94686e-07 -9.48557e-06)
(-3.54153e-06 5.42455e-07 -6.54614e-06)
(-9.43009e-07 1.30937e-06 -6.42773e-06)
(3.6268e-06 2.13859e-07 -5.38186e-06)
(-1.70132e-07 3.54131e-07 -6.50206e-06)
(1.51206e-08 5.55401e-08 -3.63284e-06)
(2.2067e-08 6.35152e-09 -3.81698e-06)
(2.85428e-07 4.95892e-09 -3.82028e-06)
(1.75161e-06 2.08443e-06 -5.29113e-06)
(-2.66063e-07 -1.30497e-06 -5.68227e-06)
(1.1255e-07 4.42749e-08 -5.09278e-06)
(-2.38858e-08 1.31798e-06 -5.74883e-06)
(1.28381e-06 4.43447e-08 -9.63048e-06)
(-3.11601e-06 -1.15052e-07 -6.33703e-06)
(-3.10457e-06 3.08496e-07 -6.43641e-06)
(5.91555e-06 4.87986e-08 -5.44525e-06)
(-3.09717e-08 1.42483e-06 -5.79777e-06)
(1.36038e-06 -2.02539e-06 -5.24246e-06)
(2.22845e-06 1.8188e-06 -5.7442e-06)
(1.39888e-07 6.34744e-08 -4.96755e-06)
(3.83536e-08 -4.91573e-08 -5.17829e-06)
(1.90634e-08 -4.70218e-09 -4.04138e-06)
(6.92813e-09 1.7513e-09 -2.26621e-06)
(6.94761e-10 3.80093e-09 -1.12875e-06)
(-1.03157e-09 2.84387e-09 -4.97895e-07)
(-9.67064e-10 1.59897e-09 -1.9498e-07)
(-5.51807e-10 7.49189e-10 -6.80729e-08)
(-2.34596e-10 2.89082e-10 -2.16017e-08)
(-9.54271e-11 1.14157e-10 -7.60167e-09)
(-3.81154e-11 4.43927e-11 -4.14038e-09)
(-5.92348e-10 6.11853e-10 -3.34977e-09)
(-4.75046e-10 -1.02123e-10 -3.29424e-09)
(9.04722e-11 -1.03742e-10 -6.30611e-09)
(1.95102e-10 -2.65487e-10 -3.39705e-09)
(-3.60238e-11 4.73351e-10 -2.62887e-09)
(2.76474e-10 -8.20744e-11 -2.66714e-09)
(-3.64864e-10 -2.62851e-10 -2.61747e-09)
(-4.59721e-11 -4.32755e-10 -3.3503e-09)
(-1.56981e-10 -4.39758e-10 -2.63879e-09)
(5.63249e-10 -2.38031e-12 -3.3061e-09)
(4.17892e-10 4.03552e-10 -2.5962e-09)
(5.46646e-11 -2.57296e-10 -2.72673e-09)
(3.4907e-10 4.23647e-11 -3.34032e-09)
(1.6964e-10 3.22439e-10 -2.6709e-09)
(1.03566e-10 -3.06025e-10 -2.74183e-09)
(3.79309e-10 1.4766e-11 -3.41464e-09)
(1.21357e-10 3.21617e-10 -2.72051e-09)
(1.39764e-10 -3.43462e-10 -2.69176e-09)
(3.81128e-10 -2.58862e-11 -3.38391e-09)
(8.39517e-11 2.79017e-10 -2.69016e-09)
(2.6328e-10 -3.65882e-10 -2.63837e-09)
(4.30508e-10 -4.59828e-11 -3.39144e-09)
(4.40047e-10 -1.56543e-10 -2.66833e-09)
(3.76634e-12 5.62475e-10 -3.34528e-09)
(-4.03108e-10 4.22024e-10 -2.6291e-09)
(-3.40938e-11 -4.47491e-10 -2.6559e-09)
(2.69131e-10 2.02388e-10 -3.42303e-09)
(-4.72245e-10 1.6475e-10 -3.27228e-09)
(-6.06417e-10 -5.89589e-10 -3.36962e-09)
(1.08452e-10 1.00156e-10 -6.34512e-09)
(1.0468e-10 -4.71838e-10 -3.3132e-09)
(-2.25757e-11 2.99137e-10 -3.31059e-09)
(-4.57573e-10 3.90267e-10 -3.36213e-09)
(-5.28125e-10 -4.82979e-10 -3.43316e-09)
(1.35224e-10 -2.15925e-11 -6.59802e-09)
(5.77799e-12 -3.56837e-10 -3.34857e-09)
(4.20592e-11 3.68328e-10 -3.33987e-09)
(-5.25788e-10 5.00125e-10 -3.41689e-09)
(-4.57832e-10 -3.74133e-10 -3.36963e-09)
(1.41194e-10 1.44195e-11 -6.5785e-09)
(-5.44983e-11 -2.80078e-10 -3.29839e-09)
(1.65109e-10 4.77228e-10 -3.25131e-09)
(-4.49552e-10 3.70015e-11 -2.63313e-09)
(5.57307e-10 6.3464e-11 -3.82572e-09)
(-1.67349e-09 1.87299e-09 -4.24322e-09)
(-2.02967e-09 -1.32913e-09 -4.74262e-09)
(3.34868e-09 2.79917e-09 -1.00049e-08)
(-6.55098e-09 -5.24204e-09 -1.73625e-08)
(-5.44551e-10 5.15309e-10 -7.75086e-09)
(-2.33381e-09 -1.35173e-09 -8.84881e-09)
(1.30297e-11 2.42788e-10 -4.61113e-09)
(1.65695e-09 4.25656e-10 -4.76447e-09)
(-3.47196e-10 2.61588e-11 -2.36487e-09)
(1.08062e-09 3.60168e-10 -3.00788e-09)
(5.12899e-10 -6.6307e-10 -3.17757e-09)
(8.03134e-10 7.03966e-10 -3.03259e-09)
(-2.00398e-09 -1.72803e-09 -4.67205e-09)
(5.76035e-10 2.27163e-11 -4.0696e-09)
(-1.76976e-09 1.82677e-09 -4.53337e-09)
(1.96569e-09 -3.18692e-09 -9.8239e-09)
(2.58668e-09 3.36597e-09 -9.70734e-09)
(-5.78414e-09 -6.08963e-09 -1.68546e-08)
(6.61663e-10 8.11596e-11 -1.02166e-08)
(-4.98628e-09 6.16206e-09 -1.69564e-08)
(7.56075e-09 -1.13385e-08 -3.17989e-08)
(9.54169e-09 1.1909e-08 -3.17602e-08)
(-1.86716e-08 -2.08024e-08 -5.55464e-08)
(1.54264e-09 2.18862e-10 -3.43014e-08)
(-1.5808e-08 2.07636e-08 -5.58691e-08)
(2.51833e-08 -3.62312e-08 -9.90694e-08)
(3.11412e-08 3.78482e-08 -9.90424e-08)
(-5.55542e-08 -6.30786e-08 -1.65744e-07)
(4.73332e-09 5.29877e-10 -1.05692e-07)
(-4.66649e-08 6.2625e-08 -1.66392e-07)
(7.34865e-08 -1.03252e-07 -2.78655e-07)
(9.00458e-08 1.07437e-07 -2.78661e-07)
(-1.49196e-07 -1.69731e-07 -4.41264e-07)
(1.28625e-08 1.19565e-09 -2.9078e-07)
(-1.24998e-07 1.67853e-07 -4.42682e-07)
(1.87899e-07 -2.62096e-07 -6.98957e-07)
(2.30259e-07 2.71909e-07 -6.99344e-07)
(-3.59897e-07 -4.04887e-07 -1.04341e-06)
(3.05361e-08 2.50507e-09 -7.10831e-07)
(-3.01406e-07 3.9872e-07 -1.04666e-06)
(4.20686e-07 -5.91336e-07 -1.55773e-06)
(5.19257e-07 6.11879e-07 -1.55978e-06)
(-7.75128e-07 -8.52187e-07 -2.18589e-06)
(6.39576e-08 4.57633e-09 -1.5396e-06)
(-6.46884e-07 8.34257e-07 -2.19262e-06)
(8.21302e-07 -1.17686e-06 -3.06843e-06)
(1.02852e-06 1.21418e-06 -3.07572e-06)
(-1.46288e-06 -1.55218e-06 -4.04327e-06)
(1.19113e-07 7.8872e-09 -2.93401e-06)
(-1.20316e-06 1.50761e-06 -4.05767e-06)
(1.35621e-06 -2.03308e-06 -5.25863e-06)
(1.6852e-06 2.04704e-06 -5.26591e-06)
(-2.25005e-07 -1.31099e-06 -5.74257e-06)
(1.22965e-06 -1.21206e-08 -9.62583e-06)
(-3.08009e-06 -1.98564e-07 -6.33218e-06)
(-3.14271e-06 1.05304e-07 -6.31564e-06)
(5.93183e-06 -5.18207e-08 -5.45984e-06)
(-2.92308e-07 -2.76657e-09 -7.2833e-06)
(-3.07562e-07 9.95236e-09 -7.27014e-06)
(2.8307e-08 1.8243e-08 -3.81772e-06)
(3.1161e-07 2.16884e-09 -3.82936e-06)
(1.74871e-06 2.08731e-06 -5.28833e-06)
(-1.70013e-07 -1.30379e-06 -5.73066e-06)
(1.3111e-07 3.84801e-09 -5.06481e-06)
(-2.33821e-07 1.58323e-06 -5.84939e-06)
(1.18697e-06 -2.6881e-07 -9.64086e-06)
(-3.12892e-06 -1.45152e-07 -6.38045e-06)
(-3.09023e-06 1.34209e-07 -6.30357e-06)
(5.89521e-06 -9.93167e-08 -5.47683e-06)
(-6.60074e-08 1.30837e-06 -5.71662e-06)
(1.35833e-06 -2.05637e-06 -5.26297e-06)
(1.09783e-07 1.34101e-08 -5.08755e-06)
(5.81096e-08 8.31203e-09 -5.04054e-06)
(2.19554e-08 2.52112e-08 -4.03401e-06)
(8.95876e-09 1.04745e-08 -2.26943e-06)
(1.63528e-09 2.35929e-09 -1.13238e-06)
(-7.40725e-10 -3.76658e-10 -4.99852e-07)
(-9.09004e-10 -7.33291e-10 -1.95793e-07)
(-5.52288e-10 -4.75705e-10 -6.83569e-08)
(-2.39775e-10 -2.10111e-10 -2.16886e-08)
(-1.00215e-10 -8.80945e-11 -7.63178e-09)
(-4.05665e-11 -3.49694e-11 -4.1596e-09)
(3.81767e-10 -4.5725e-10 -3.37969e-09)
(-4.86518e-10 -5.20779e-10 -3.42838e-09)
(4.95697e-10 -5.25096e-10 -3.42649e-09)
(-3.72109e-10 -4.53219e-10 -3.36679e-09)
(2.281e-11 1.52636e-10 -6.58685e-09)
(3.62724e-10 3.56209e-11 -3.34519e-09)
(-2.7886e-10 -4.36441e-11 -3.3058e-09)
(1.50604e-11 -5.32615e-10 -2.81104e-09)
(-2.98673e-10 1.16553e-10 -2.76123e-09)
(2.25824e-12 -4.08857e-10 -5.04675e-09)
(-3.53026e-10 3.19551e-11 -3.345e-09)
(-1.16691e-11 1.5294e-10 -6.59992e-09)
(2.88432e-10 -4.00336e-11 -3.31958e-09)
(9.97661e-13 -3.99395e-10 -4.96512e-09)
(2.57299e-10 5.79518e-11 -2.74849e-09)
(-3.77255e-11 3.42907e-10 -3.36763e-09)
(-3.17023e-10 1.68236e-10 -2.69469e-09)
(-1.13398e-11 -5.33798e-10 -2.81747e-09)
(3.01127e-10 1.17883e-10 -2.76525e-09)
(9.68961e-13 3.77251e-10 -3.40703e-09)
(1.69536e-12 5.35146e-10 -1.96171e-09)
(6.82626e-10 6.62841e-10 -3.15695e-09)
(-1.77775e-09 -1.85908e-09 -4.55239e-09)
(1.78783e-09 -1.86028e-09 -4.54729e-09)
(-1.69924e-09 -1.95302e-09 -4.69061e-09)
(3.34457e-09 2.47875e-09 -9.75252e-09)
(-6.01189e-09 -5.54872e-09 -1.69015e-08)
(1.18132e-08 9.10305e-09 -3.18826e-08)
(-2.05211e-08 -1.77911e-08 -5.56425e-08)
(3.74676e-08 2.96433e-08 -9.93394e-08)
(-6.22007e-08 -5.27931e-08 -1.65887e-07)
(1.06216e-07 8.56442e-08 -2.79302e-07)
(-1.67359e-07 -1.41635e-07 -4.41435e-07)
(2.68616e-07 2.18912e-07 -7.00644e-07)
(-3.99159e-07 -3.41677e-07 -1.04346e-06)
(6.04317e-07 4.93841e-07 -1.56251e-06)
(-8.40094e-07 -7.37307e-07 -2.18502e-06)
(1.1999e-06 9.81127e-07 -3.08176e-06)
(-1.53138e-06 -1.39906e-06 -4.03835e-06)
(2.06264e-06 1.68469e-06 -5.30604e-06)
(-1.29575e-06 -2.24924e-07 -5.67876e-06)
(3.60772e-08 1.30418e-06 -9.63728e-06)
(1.31398e-06 -8.91664e-08 -5.77685e-06)
(3.92869e-08 1.16451e-07 -5.09268e-06)
(-2.00781e-06 1.45966e-06 -5.24739e-06)
(1.4926e-06 -1.28549e-06 -4.07024e-06)
(9.10116e-09 1.22364e-07 -2.93667e-06)
(-1.16254e-06 8.89498e-07 -3.06899e-06)
(8.24703e-07 -6.96881e-07 -2.19722e-06)
(4.66446e-09 6.53375e-08 -1.54116e-06)
(-5.84301e-07 4.56784e-07 -1.55954e-06)
(3.9394e-07 -3.25747e-07 -1.04821e-06)
(2.39392e-09 3.11738e-08 -7.11602e-07)
(-2.59047e-07 2.04139e-07 -7.00086e-07)
(1.65847e-07 -1.35198e-07 -4.43285e-07)
(1.14007e-09 1.3161e-08 -2.91154e-07)
(-1.02087e-07 7.99238e-08 -2.79229e-07)
(6.19109e-08 -5.04263e-08 -1.66661e-07)
(5.06268e-10 4.86625e-09 -1.05873e-07)
(-3.58445e-08 2.74791e-08 -9.93587e-08)
(2.05494e-08 -1.70219e-08 -5.59794e-08)
(2.10184e-10 1.59962e-09 -3.43818e-08)
(-1.12274e-08 8.28632e-09 -3.1932e-08)
(6.10284e-09 -5.32749e-09 -1.69957e-08)
(8.01689e-11 6.8362e-10 -1.02466e-08)
(-3.15104e-09 2.15576e-09 -9.87104e-09)
(9.1854e-12 -3.27857e-10 -5.96568e-09)
(3.17709e-09 2.15865e-09 -9.87723e-09)
(-6.05418e-09 -5.31561e-09 -1.70042e-08)
(-5.34748e-11 6.84912e-10 -1.02618e-08)
(-3.32062e-09 2.48776e-09 -9.76794e-09)
(1.713e-09 -1.95105e-09 -4.70208e-09)
(-1.72019e-11 5.86564e-10 -4.10023e-09)
(-6.95407e-10 7.83356e-10 -3.05363e-09)
(-5.85837e-11 4.7895e-10 -1.95387e-09)
(6.65054e-10 5.24428e-10 -3.21497e-09)
(-1.85818e-09 -1.71832e-09 -4.27924e-09)
(3.05162e-09 1.92572e-09 -9.74362e-09)
(-6.0986e-09 -4.96428e-09 -1.68413e-08)
(1.09138e-08 7.92363e-09 -3.17116e-08)
(-2.03136e-08 -1.59105e-08 -5.58705e-08)
(3.53147e-08 2.68022e-08 -9.94764e-08)
(-6.08149e-08 -4.74563e-08 -1.66718e-07)
(1.01528e-07 7.84934e-08 -2.81042e-07)
(-1.6213e-07 -1.27997e-07 -4.43813e-07)
(2.59663e-07 2.01367e-07 -7.0707e-07)
(-3.83807e-07 -3.11216e-07 -1.04932e-06)
(5.91031e-07 4.5531e-07 -1.58254e-06)
(-8.01271e-07 -6.73881e-07 -2.19136e-06)
(1.18643e-06 9.03901e-07 -3.13544e-06)
(-1.43903e-06 -1.24076e-06 -4.01474e-06)
(2.03986e-06 1.49665e-06 -5.35817e-06)
(-1.27889e-06 -8.2329e-08 -5.72358e-06)
(-3.52497e-07 9.99479e-07 -9.56194e-06)
(5.22297e-07 -5.58726e-07 -6.12386e-06)
(5.40555e-08 1.48716e-07 -4.97027e-06)
(-1.90213e-06 2.08727e-06 -5.81378e-06)
(1.32994e-06 -1.80579e-06 -4.44672e-06)
(4.7489e-09 1.42707e-07 -2.87129e-06)
(-1.0658e-06 1.32047e-06 -3.37771e-06)
(7.52925e-07 -9.41801e-07 -2.37049e-06)
(-8.10163e-09 7.19178e-08 -1.5031e-06)
(-5.17277e-07 6.71308e-07 -1.70038e-06)
(3.53872e-07 -4.26378e-07 -1.11885e-06)
(-6.97475e-09 3.30097e-08 -6.91365e-07)
(-2.27402e-07 2.97429e-07 -7.58417e-07)
(1.46507e-07 -1.74172e-07 -4.69768e-07)
(-3.96667e-09 1.38752e-08 -2.82025e-07)
(-8.97486e-08 1.17181e-07 -3.01234e-07)
(5.40548e-08 -6.405e-08 -1.7534e-07)
(-2.00306e-09 5.15748e-09 -1.02166e-07)
(-3.1548e-08 4.09867e-08 -1.06319e-07)
(1.78169e-08 -2.11519e-08 -5.82011e-08)
(-9.01511e-10 1.7254e-09 -3.29753e-08)
(-9.86389e-09 1.26717e-08 -3.36446e-08)
(5.2581e-09 -6.43119e-09 -1.74138e-08)
(-3.76793e-10 7.26078e-10 -9.68868e-09)
(-2.75408e-09 3.33426e-09 -1.00358e-08)
(1.32542e-09 -2.007e-09 -4.76449e-09)
(-6.06843e-11 5.66571e-10 -3.85932e-09)
(-3.56452e-10 1.08916e-09 -3.03375e-09)
(4.73556e-10 8.75826e-10 -2.74428e-09)
(8.24594e-10 -4.16495e-10 -2.7698e-09)
(-3.78214e-10 1.65433e-09 -4.75825e-09)
(-4.48718e-11 -3.46288e-10 -2.36992e-09)
(-1.97598e-10 3.39257e-12 -2.73199e-09)
(6.64409e-10 1.53697e-09 -4.12421e-09)
(-2.22911e-09 -1.48424e-09 -4.11617e-09)
(2.82031e-09 2.3037e-09 -9.59256e-09)
(-6.84718e-09 -4.36669e-09 -1.70081e-08)
(-4.60833e-09 6.73413e-09 -1.65559e-08)
(-5.96655e-09 -6.3493e-09 -1.68715e-08)
(6.73681e-10 -1.80107e-10 -1.00036e-08)
(2.02806e-09 -3.83488e-09 -9.54225e-09)
(2.28294e-09 3.17509e-09 -9.7705e-09)
(-2.00717e-09 -1.9169e-09 -4.34891e-09)
(5.24857e-10 -1.03247e-11 -3.96885e-09)
(-1.6661e-09 1.81894e-09 -4.63691e-09)
(-3.9453e-10 -1.29669e-11 -5.73438e-09)
(-1.62277e-10 -1.45148e-10 -5.73598e-09)
(-4.73152e-10 -3.808e-10 -4.5684e-09)
(1.23634e-11 1.47388e-11 -2.84383e-09)
(-4.04113e-11 -3.5539e-11 -2.78409e-09)
(-4.29168e-10 7.96201e-12 -4.95177e-09)
(-3.64207e-10 -7.32597e-11 -6.37914e-09)
(-3.74573e-10 -6.61842e-11 -5.90299e-09)
(-1.80469e-09 1.7714e-09 -4.65997e-09)
(-1.98378e-09 -1.82468e-09 -4.57054e-09)
(2.39952e-09 3.23818e-09 -9.84718e-09)
(-5.81746e-09 -6.16402e-09 -1.69805e-08)
(-1.22507e-09 1.56971e-11 -1.90005e-08)
(9.18239e-09 1.15255e-08 -3.18784e-08)
(-1.87469e-08 -2.07625e-08 -5.59413e-08)
(3.0472e-08 3.68764e-08 -9.92619e-08)
(-5.56642e-08 -6.25442e-08 -1.66608e-07)
(-9.86242e-09 3.25692e-10 -1.75584e-07)
(8.88519e-08 1.05266e-07 -2.79275e-07)
(-1.4931e-07 -1.67445e-07 -4.43056e-07)
(2.27967e-07 2.67639e-07 -7.01078e-07)
(-3.59798e-07 -3.97508e-07 -1.04664e-06)
(-2.58789e-08 1.87369e-09 -1.04797e-06)
(5.14031e-07 6.03921e-07 -1.56365e-06)
(-7.70833e-07 -8.32213e-07 -2.18964e-06)
(1.01166e-06 1.1968e-06 -3.07946e-06)
(-1.43251e-06 -1.50927e-06 -4.04798e-06)
(2.98006e-07 -4.06139e-09 -3.8264e-06)
(2.81123e-08 2.19344e-09 -3.81441e-06)
(-1.17399e-08 3.73903e-09 -2.14323e-06)
(-8.63853e-09 1.17025e-08 -2.14898e-06)
(-2.16874e-08 4.12932e-09 -1.07013e-06)
(-2.47557e-08 5.09283e-09 -1.05358e-06)
(5.35748e-07 6.12148e-07 -1.57696e-06)
(-7.92656e-07 -8.33915e-07 -2.1966e-06)
(7.00225e-08 2.59992e-09 -1.54763e-06)
(-6.4194e-07 9.94175e-07 -2.22537e-06)
(7.73093e-07 -1.37816e-06 -3.08605e-06)
(1.06384e-06 1.22631e-06 -3.11412e-06)
(-1.43837e-06 -1.49622e-06 -4.03261e-06)
(1.39665e-07 1.24345e-08 -2.9458e-06)
(-1.26601e-06 1.83529e-06 -4.1431e-06)
(1.21252e-06 -2.29622e-06 -5.23466e-06)
(2.45061e-06 1.48925e-06 -5.98951e-06)
(-1.0157e-07 -1.21777e-06 -5.66846e-06)
(2.09849e-07 -2.57305e-06 -9.8972e-06)
(-3.38505e-06 -2.14637e-07 -6.59614e-06)
(-3.15889e-06 3.75708e-08 -6.21016e-06)
(5.69104e-06 -9.1495e-07 -5.7063e-06)
(-4.08324e-07 -2.54359e-07 -7.19902e-06)
(3.47053e-08 1.80066e-08 -3.6605e-06)
(6.85667e-08 1.08573e-06 -3.38501e-06)
(-1.08198e-06 1.24807e-06 -4.40428e-06)
(1.83174e-07 6.96796e-08 -2.49075e-06)
(4.52597e-07 -1.35754e-06 -3.1965e-06)
(-4.74667e-07 7.81469e-07 -2.26991e-06)
(2.24642e-08 -1.05499e-08 -1.26224e-06)
(2.40277e-07 -5.51039e-07 -1.59893e-06)
(-2.11279e-07 3.66697e-07 -1.04809e-06)
(-3.29547e-09 -1.2614e-08 -5.72722e-07)
(9.92509e-08 -2.24596e-07 -7.12554e-07)
(-9.07206e-08 1.53767e-07 -4.37358e-07)
(-3.62401e-09 -6.21573e-09 -2.32473e-07)
(3.42845e-08 -8.36267e-08 -2.80975e-07)
(-3.41208e-08 5.69964e-08 -1.61026e-07)
(-2.47569e-09 -3.06875e-09 -8.35094e-08)
(1.20393e-08 -2.87437e-08 -9.85699e-08)
(-1.13537e-08 1.94485e-08 -5.27349e-08)
(-1.33432e-09 -1.29672e-09 -2.66545e-08)
(3.76384e-09 -8.31903e-09 -3.04895e-08)
(-3.10983e-09 5.98124e-09 -1.54409e-08)
(-6.17521e-10 -6.02186e-10 -7.70475e-09)
(1.43795e-09 -2.18463e-09 -8.78711e-09)
(3.56412e-10 1.89836e-10 -4.84517e-09)
(2.12224e-10 5.09767e-10 -4.55688e-09)
(2.23249e-11 -1.67997e-09 -8.07195e-09)
(-3.09357e-11 -4.69132e-10 -9.19442e-09)
(1.60871e-09 3.6488e-09 -1.38322e-08)
(-7.92963e-10 -7.41182e-09 -2.79154e-08)
(1.11247e-08 7.90395e-09 -3.15017e-08)
(-2.23031e-08 -1.47793e-08 -5.6757e-08)
(3.76903e-08 2.55776e-08 -1.00447e-07)
(-6.7091e-08 -4.46397e-08 -1.70501e-07)
(-4.3058e-08 7.04735e-08 -1.6528e-07)
(-5.72704e-08 -6.35004e-08 -1.67e-07)
(4.85108e-09 -9.53575e-10 -1.05345e-07)
(2.48685e-08 -4.2794e-08 -9.94855e-08)
(3.11544e-08 3.64722e-08 -9.91941e-08)
(-1.92324e-08 -2.11854e-08 -5.59549e-08)
(1.57425e-09 -4.74371e-10 -3.40142e-08)
(-1.44107e-08 2.3043e-08 -5.4974e-08)
(-3.17773e-09 -8.05026e-12 -5.9857e-08)
(-1.84344e-09 -1.57893e-09 -6.06995e-08)
(-6.5097e-10 -5.69235e-10 -1.89404e-08)
(-6.85902e-10 -5.42347e-10 -1.54512e-08)
(-1.22097e-09 -2.89099e-09 -2.03308e-08)
(1.49547e-10 -9.7396e-10 -1.70915e-08)
(-1.22234e-10 -4.19757e-10 -1.59825e-08)
(-1.60842e-09 -3.65055e-10 -1.97182e-08)
(-4.47523e-09 4.44245e-10 -2.13469e-08)
(-1.06427e-09 1.46248e-10 -6.95527e-09)
(6.90621e-10 4.635e-12 -3.60601e-09)
(6.40667e-10 -8.13248e-11 -1.94334e-09)
(6.05573e-10 9.90692e-10 -3.68428e-09)
(2.51102e-10 3.0232e-10 -2.21157e-09)
(1.52302e-09 -1.41959e-11 -4.13325e-09)
(3.08105e-10 2.94897e-10 -6.14809e-09)
(1.52994e-09 -5.27763e-10 -1.14962e-08)
(3.42732e-09 -1.99868e-09 -3.76313e-08)
(-6.69255e-09 -1.82951e-09 -6.42873e-08)
(-1.33614e-08 1.34741e-09 -6.71252e-08)
(-3.53784e-08 4.01105e-09 -1.93749e-07)
(-1.91027e-08 -4.73511e-09 -1.89731e-07)
(8.59423e-09 -5.93808e-09 -1.15323e-07)
(-3.93519e-09 -2.4514e-08 -9.00742e-08)
(1.22441e-09 -3.46538e-09 -1.00943e-07)
(1.28763e-08 3.61035e-08 -1.47882e-07)
(-1.20482e-08 -7.15733e-08 -2.55762e-07)
(1.10656e-07 7.36143e-08 -2.87001e-07)
(-1.81226e-07 -1.19487e-07 -4.55737e-07)
(2.85816e-07 1.89446e-07 -7.26711e-07)
(-4.42374e-07 -2.8455e-07 -1.08221e-06)
(-2.87515e-07 4.63103e-07 -1.05327e-06)
(-3.71375e-07 -4.00539e-07 -1.05131e-06)
(3.2021e-08 -1.22336e-09 -7.12966e-07)
(1.82128e-07 -3.06687e-07 -7.0603e-07)
(2.35965e-07 2.68785e-07 -7.04957e-07)
(-1.53925e-07 -1.69351e-07 -4.44659e-07)
(1.32987e-08 -1.48096e-09 -2.90879e-07)
(-1.16953e-07 1.91562e-07 -4.42738e-07)
(-1.52814e-08 2.26564e-09 -4.57648e-07)
(-6.77553e-09 -6.50569e-09 -4.49077e-07)
(-4.05519e-09 -3.56193e-09 -1.74956e-07)
(-4.15864e-09 9.78174e-10 -1.48574e-07)
(-9.44509e-09 -2.61265e-08 -1.8556e-07)
(-1.10578e-09 -1.35484e-08 -1.71345e-07)
(-3.22805e-09 -9.45172e-09 -1.61319e-07)
(-3.74812e-09 -9.51518e-09 -6.43287e-08)
(-5.74897e-10 -4.61338e-09 -5.65554e-08)
(-1.16809e-09 -3.27687e-09 -5.31484e-08)
(4.73736e-09 1.1883e-08 -4.81587e-08)
(3.28993e-10 -1.27233e-09 -3.21434e-08)
(-1.79373e-09 -5.56894e-10 -5.05648e-08)
(-2.19106e-10 3.42994e-09 -3.87515e-08)
(8.25631e-11 -4.38031e-09 -2.20068e-08)
(-4.80583e-12 -1.05918e-09 -7.20842e-09)
(-7.09704e-11 8.43839e-10 -3.77006e-09)
(4.479e-11 1.4443e-09 -4.14766e-09)
(-8.97539e-10 2.4807e-09 -3.44039e-09)
(-3.41003e-10 -3.10595e-10 -6.53115e-09)
(-2.54306e-10 -6.17513e-11 -4.59874e-09)
(-1.38565e-10 1.04452e-09 -1.19074e-08)
(-5.8694e-11 6.71359e-10 -1.20911e-08)
(6.07617e-09 -5.53827e-09 -1.69388e-08)
(-2.38675e-11 -1.18258e-09 -1.89084e-08)
(-1.1734e-08 9.15906e-09 -3.19319e-08)
(1.13342e-08 8.2933e-09 -3.19665e-08)
(-2.03612e-08 -1.69631e-08 -5.59891e-08)
(-9.66201e-11 1.60695e-09 -3.44455e-08)
(2.07909e-08 -1.78174e-08 -5.58199e-08)
(9.84751e-11 -3.58397e-09 -6.04579e-08)
(-3.7218e-08 2.98023e-08 -9.95138e-08)
(3.62561e-08 2.75497e-08 -9.95435e-08)
(-6.12836e-08 -5.02238e-08 -1.66626e-07)
(-7.26717e-11 4.90104e-09 -1.06112e-07)
(6.31503e-08 -5.31121e-08 -1.66639e-07)
(5.82483e-10 -9.06238e-09 -1.75779e-07)
(-1.05476e-07 8.58602e-08 -2.79835e-07)
(1.03453e-07 8.03489e-08 -2.80019e-07)
(-1.64035e-07 -1.34712e-07 -4.42936e-07)
(2.71911e-10 1.32815e-08 -2.9191e-07)
(1.70233e-07 -1.43146e-07 -4.43981e-07)
(2.09637e-09 -1.77152e-08 -4.561e-07)
(-2.66764e-07 2.18487e-07 -7.01904e-07)
(2.62911e-07 2.06052e-07 -7.02843e-07)
(-3.89482e-07 -3.25205e-07 -1.04626e-06)
(1.5725e-09 3.15791e-08 -7.13574e-07)
(4.06626e-07 -3.47131e-07 -1.05091e-06)
(5.43892e-09 -1.85555e-08 -1.05101e-06)
(-6.00512e-07 4.87785e-07 -1.56354e-06)
(5.93283e-07 4.6478e-07 -1.5683e-06)
(-8.15636e-07 -6.99874e-07 -2.18794e-06)
(4.95804e-09 6.6539e-08 -1.54508e-06)
(8.54702e-07 -7.5065e-07 -2.20427e-06)
(7.45253e-09 4.47193e-08 -2.14331e-06)
(-1.19208e-06 9.43707e-07 -3.07243e-06)
(1.17693e-06 9.19353e-07 -3.09221e-06)
(-1.47949e-06 -1.31166e-06 -4.03896e-06)
(9.85785e-09 1.24702e-07 -2.93972e-06)
(1.5416e-06 -1.40231e-06 -4.07794e-06)
(-9.51032e-09 3.70003e-07 -3.82623e-06)
(-2.04352e-06 1.54735e-06 -5.24886e-06)
(2.01403e-06 1.54677e-06 -5.29565e-06)
(-1.304e-06 -1.43319e-07 -5.73886e-06)
(-4.17102e-09 1.1721e-07 -5.08432e-06)
(1.29274e-06 -1.93227e-07 -5.74421e-06)
(-9.96323e-08 5.90996e-06 -5.51299e-06)
(-2.59564e-07 -3.09381e-06 -6.36267e-06)
(-1.59248e-07 -3.21802e-06 -6.14937e-06)
(-3.27878e-07 4.45586e-06 -5.36307e-06)
(-2.88665e-06 1.18401e-06 -7.08618e-06)
(5.33157e-07 3.78092e-07 -4.3739e-06)
(2.42455e-07 -3.02537e-06 -5.45629e-06)
(-2.06105e-07 -7.75793e-07 -3.83676e-06)
(-4.06036e-07 -4.80739e-07 -3.65921e-06)
(-8.37294e-08 1.09768e-06 -4.15295e-06)
(-1.71431e-06 -1.16569e-06 -4.04877e-06)
(4.28636e-07 -2.21092e-08 -3.89772e-06)
(-9.78046e-07 8.27699e-08 -4.25892e-06)
(-1.16725e-06 -2.97144e-07 -4.31756e-06)
(-1.09625e-07 -3.08761e-07 -3.33088e-06)
(-3.282e-07 -7.0355e-08 -2.41854e-06)
(-4.65058e-07 7.6682e-08 -2.38745e-06)
(-2.02087e-07 3.16078e-08 -1.15921e-06)
(-1.11009e-07 -2.07357e-08 -1.16226e-06)
(4.64078e-08 -3.58271e-08 -7.75894e-07)
(-4.62836e-08 -1.1022e-08 -4.97199e-07)
(-8.6365e-08 1.13781e-08 -5.01311e-07)
(-7.80099e-08 2.37401e-09 -4.97254e-07)
(-3.17027e-08 5.30696e-10 -1.93303e-07)
(-1.21483e-08 1.52008e-11 -6.76335e-08)
(-4.26616e-09 -8.57318e-11 -2.17999e-08)
(-1.0371e-09 -7.51439e-11 -7.13518e-09)
(8.80408e-10 -1.18855e-10 -3.74382e-09)
(5.71398e-10 -4.80349e-11 -1.94753e-09)
(6.44579e-10 6.90952e-10 -3.17291e-09)
(7.33075e-10 -7.16459e-10 -2.77838e-09)
(1.28572e-09 -4.53109e-11 -4.15385e-09)
(1.25802e-09 -1.1295e-11 -4.27563e-09)
(7.03009e-10 -7.463e-10 -3.06478e-09)
(7.12274e-10 7.19332e-10 -3.16877e-09)
(5.72636e-10 -1.45965e-11 -4.09067e-09)
(-5.465e-10 -6.88475e-12 -2.80398e-09)
(1.25872e-10 -7.25279e-12 -3.44178e-09)
(-6.48984e-11 -6.40887e-11 -2.91156e-09)
(-4.33663e-11 -4.72643e-11 -2.80007e-09)
(1.14243e-10 1.17739e-10 -3.33968e-09)
(-4.75163e-10 -3.39473e-11 -2.64895e-09)
(-6.46669e-12 1.35268e-10 -3.43477e-09)
(6.02378e-13 -6.61671e-11 -2.83902e-09)
(4.11018e-13 -7.79838e-11 -2.97493e-09)
(3.57715e-12 -3.4743e-11 -4.25533e-09)
(-2.91634e-10 2.54391e-10 -3.40095e-09)
(-3.71416e-10 -3.68314e-10 -3.48575e-09)
(-3.73854e-10 3.83208e-10 -3.48201e-09)
(-2.88672e-10 -2.38431e-10 -3.39382e-09)
(2.96937e-10 -2.47321e-10 -3.38773e-09)
(-1.64985e-10 -1.64383e-10 -3.29996e-09)
(3.95278e-11 3.77592e-11 -6.97242e-09)
(3.86088e-10 3.84277e-10 -3.47845e-09)
(-2.42429e-10 2.98673e-10 -3.39199e-09)
(-2.38437e-10 -2.8652e-10 -3.39197e-09)
(4.11941e-11 -2.48125e-11 -6.98499e-09)
(3.79905e-10 -3.74151e-10 -3.48207e-09)
(3.63573e-12 4.31536e-12 -4.35854e-09)
(1.00081e-11 1.18439e-11 -7.97264e-09)
(1.04295e-11 -9.98177e-11 -7.78789e-09)
(8.57663e-12 -3.53203e-10 -6.45669e-09)
(-8.56941e-11 -3.36888e-10 -6.36481e-09)
(-4.3386e-11 -3.66773e-10 -5.87504e-09)
(-1.36975e-10 -1.11069e-09 -2.01163e-08)
(-2.77771e-10 -3.19633e-09 -6.40525e-08)
(-3.09714e-10 -7.57738e-09 -1.83907e-07)
(3.42513e-10 -1.45104e-08 -4.70457e-07)
(2.93564e-09 -1.92339e-08 -1.06809e-06)
(-5.54543e-09 -8.33099e-09 -1.02306e-06)
(-1.16272e-08 4.30481e-08 -8.98513e-07)
(-4.00664e-08 -1.54552e-07 -1.09923e-06)
(5.34093e-09 -7.32588e-08 -1.03919e-06)
(-1.95893e-08 -3.55099e-08 -9.85024e-07)
(6.936e-08 2.59668e-07 -9.62661e-07)
(-9.67827e-08 -3.99899e-07 -1.45766e-06)
(6.62547e-07 4.34284e-07 -1.64719e-06)
(-9.63037e-07 -6.14206e-07 -2.25916e-06)
(1.38454e-06 8.76872e-07 -3.3592e-06)
(6.78454e-09 -5.59378e-08 -3.02668e-06)
(-3.88335e-07 -8.59439e-07 -2.88278e-06)
(-8.86774e-08 -8.37701e-08 -2.02614e-06)
(1.09651e-07 6.02348e-07 -2.09263e-06)
(1.26759e-08 -2.90277e-08 -1.53259e-06)
(7.24426e-08 -9.52825e-08 -1.70677e-06)
(9.52893e-08 1.36698e-08 -1.71473e-06)
(-1.83045e-07 7.84247e-09 -1.14189e-06)
(-4.11206e-07 2.09448e-08 -2.32731e-06)
(-9.00245e-07 2.8183e-08 -4.18008e-06)
(-2.1922e-06 -2.87805e-08 -6.63565e-06)
(-2.26706e-06 -3.3058e-07 -6.673e-06)
(-4.86185e-06 1.15563e-06 -6.81296e-06)
(-1.75322e-06 -5.75115e-07 -5.27896e-06)
(-1.46393e-06 -1.72483e-06 -4.68432e-06)
(-4.062e-10 -3.03809e-07 -5.14152e-06)
(-5.44616e-07 -4.38138e-07 -6.05443e-06)
(5.91055e-07 -4.68433e-06 -5.44374e-06)
(-4.54335e-06 -1.34986e-06 -6.43384e-06)
(-2.804e-06 1.78983e-07 -9.76133e-06)
(-1.3931e-06 -2.04319e-06 -8.78614e-06)
(1.94332e-06 1.45796e-06 -8.12602e-06)
(1.58363e-07 8.02866e-08 -8.45285e-06)
(7.74932e-08 5.95717e-08 -5.21293e-06)
(-1.94543e-06 1.75527e-06 -6.74985e-06)
(2.04997e-06 1.46848e-06 -7.05099e-06)
(1.742e-08 1.77587e-07 -8.58149e-06)
(-2.58195e-07 -1.67957e-07 -5.32701e-06)
(-2.11434e-06 1.9135e-06 -6.93944e-06)
(2.04983e-06 1.72347e-06 -7.06889e-06)
(3.77495e-09 1.84874e-07 -8.62129e-06)
(-2.87435e-07 -2.01495e-07 -5.35202e-06)
(-2.06913e-06 1.74589e-06 -6.85518e-06)
(2.04102e-06 1.95671e-06 -7.16415e-06)
(1.23509e-08 1.73239e-07 -8.61825e-06)
(-4.57281e-07 -4.46721e-07 -5.50716e-06)
(-1.97951e-06 1.46374e-06 -6.82352e-06)
(1.4575e-06 1.97144e-06 -7.68549e-06)
(-1.32542e-06 -7.17025e-07 -1.07949e-05)
(1.19429e-06 1.22548e-06 -9.0216e-06)
(9.13464e-07 -1.0542e-06 -8.8379e-06)
(2.52733e-06 1.13585e-06 -1.12772e-05)
(-1.19146e-06 -4.41745e-06 -1.11517e-05)
(-6.48391e-07 -2.37549e-06 -8.69753e-06)
(3.64754e-07 3.51328e-07 -6.20048e-06)
(1.373e-06 -1.09079e-06 -8.54151e-06)
(-3.96737e-06 1.91315e-06 -7.15799e-06)
(-1.76545e-07 -1.21039e-07 -6.05725e-06)
(-2.28786e-06 -3.06954e-06 -6.72455e-06)
(2.39867e-06 1.89096e-06 -7.62667e-06)
(2.37436e-06 -3.10618e-08 -6.23215e-06)
(2.12605e-06 -2.21464e-06 -7.95019e-06)
(2.70031e-06 -2.21571e-06 -9.26697e-06)
(1.12259e-06 -3.15711e-06 -5.96505e-06)
(1.23035e-07 8.91602e-07 -6.43568e-06)
(9.36649e-07 -1.59313e-06 -5.47865e-06)
(1.33055e-06 -1.10755e-06 -5.68965e-06)
(2.00977e-06 1.56505e-06 -6.93018e-06)
(-5.2394e-07 -2.3836e-06 -5.32782e-06)
(1.61776e-07 -4.30815e-07 -3.70098e-06)
(9.46725e-07 1.3589e-06 -4.18045e-06)
(-4.42291e-07 -1.144e-06 -3.08923e-06)
(1.49235e-08 -1.48028e-07 -2.0719e-06)
(4.52058e-07 7.62319e-07 -2.19243e-06)
(-2.24139e-07 -5.13727e-07 -1.56343e-06)
(4.37496e-09 -6.61622e-08 -1.00935e-06)
(2.10114e-07 3.60213e-07 -1.02947e-06)
(-9.28101e-08 -2.16825e-07 -7.00759e-07)
(2.95877e-09 -3.18232e-08 -4.37856e-07)
(8.95344e-08 1.50408e-07 -4.31271e-07)
(-3.43417e-08 -8.37402e-08 -2.78691e-07)
(1.57276e-09 -1.36967e-08 -1.68196e-07)
(3.41999e-08 5.61818e-08 -1.60727e-07)
(-1.14478e-08 -2.89534e-08 -9.82608e-08)
(6.10348e-10 -4.94458e-09 -5.74112e-08)
(1.15153e-08 1.88508e-08 -5.30844e-08)
(-3.67266e-09 -8.90938e-09 -3.08049e-08)
(7.53859e-11 -1.31231e-09 -1.7125e-08)