/*--------------------------------*- C++ -*----------------------------------*\
| =========                 |                                                 |
| \\      /  F ield         | OpenFOAM: The Open Source CFD Toolbox           |
|  \\    /   O peration     | Version:  2306                                  |
|   \\  /    A nd           | Website:  www.openfoam.com                      |
|    \\/     M anipulation  |                                                 |
\*---------------------------------------------------------------------------*/
FoamFile
{
    version     2.0;
    format      ascii;
    arch        "LSB;label=32;scalar=64";
    class       volScalarField;
    location    "0.7";
    object      gradTz;
}
// * * * * * * * * * * * * * * * * * * * * * * * * * * * * * * * * * * * * * //

dimensions      [0 -1 0 1 0 0 0];

internalField   nonuniform List<scalar> 
5322
(
-0.0559053
-0.0462057
-0.0316761
-0.0340773
-0.0191126
-0.00950855
-0.00419445
-0.00164504
-0.000577729
-0.000185983
-6.07423e-05
-3.17617e-05
-1.6491e-05
-2.69831e-05
-3.25214e-05
-3.61558e-05
-4.02274e-05
-3.91112e-05
-7.4904e-05
-0.00013289
-0.00026078
-0.0004489
-0.000832412
-0.00136704
-0.00237196
-0.00364351
-0.00593023
-0.00868637
-0.0132213
-0.0181314
-0.0258408
-0.0337168
-0.0446482
-0.0537138
-0.0627999
-0.0588081
-0.0717843
-0.0689666
-0.070957
-0.0537919
-0.0655729
-0.067699
-0.0526639
-0.0676605
-0.0669723
-0.0536505
-0.0686948
-0.0650468
-0.0532315
-0.0680519
-0.0791607
-0.0509926
-0.0729941
-0.0611271
-0.0517925
-0.0575849
-0.0743486
-0.0562827
-0.0514296
-0.05723
-0.0749959
-0.057021
-0.0513778
-0.0558484
-0.0750554
-0.0591846
-0.0512886
-0.0532243
-0.0739889
-0.0635563
-0.0429639
-0.0600173
-0.0570787
-0.0561881
-0.0566478
-0.0563768
-0.0563411
-0.056248
-0.057358
-0.0552277
-0.0549718
-0.0468005
-0.0485903
-0.0592156
-0.0360238
-0.0512805
-0.0810732
-0.05595
-0.0549378
-0.0459988
-0.0555732
-0.0310499
-0.0326237
-0.032652
-0.0452233
-0.0485664
-0.043528
-0.0491353
-0.0823118
-0.0541627
-0.0550121
-0.0465406
-0.0495536
-0.0448074
-0.0490957
-0.0424577
-0.0442589
-0.0345417
-0.0193693
-0.00964741
-0.00425552
-0.00166649
-0.00058182
-0.00018463
-6.49715e-05
-3.53879e-05
-2.86305e-05
-2.81559e-05
-5.38984e-05
-2.90346e-05
-2.2469e-05
-2.2796e-05
-2.23716e-05
-2.8635e-05
-2.25537e-05
-2.82573e-05
-2.21897e-05
-2.33054e-05
-2.85498e-05
-2.28282e-05
-2.34344e-05
-2.91849e-05
-2.32523e-05
-2.30065e-05
-2.89223e-05
-2.29928e-05
-2.25502e-05
-2.89867e-05
-2.28063e-05
-2.85921e-05
-2.24709e-05
-2.27e-05
-2.92567e-05
-2.79682e-05
-2.88002e-05
-5.42318e-05
-2.8318e-05
-2.82956e-05
-2.87362e-05
-2.93432e-05
-5.63934e-05
-2.86203e-05
-2.85459e-05
-2.92042e-05
-2.88003e-05
-5.62265e-05
-2.81914e-05
-2.7789e-05
-2.25054e-05
-3.26984e-05
-3.62668e-05
-4.05352e-05
-8.55122e-05
-0.000148397
-6.62467e-05
-7.56309e-05
-3.94114e-05
-4.0722e-05
-2.02126e-05
-2.57084e-05
-2.71587e-05
-2.59196e-05
-3.9932e-05
-3.47829e-05
-3.87467e-05
-8.39649e-05
-8.29687e-05
-0.000144057
-8.7321e-05
-0.000144926
-0.000271785
-0.000271454
-0.000474755
-0.000293175
-0.000477513
-0.000846747
-0.000846516
-0.00141661
-0.000903351
-0.00142215
-0.00238167
-0.00238171
-0.00377148
-0.0024853
-0.00378361
-0.005974
-0.0059773
-0.00891805
-0.00607548
-0.00894578
-0.0133139
-0.0133314
-0.0186828
-0.013159
-0.0187403
-0.0262259
-0.0262882
-0.0345578
-0.025077
-0.0346809
-0.0449455
-0.0450078
-0.0490818
-0.082272
-0.0541212
-0.0539798
-0.0466653
-0.0622505
-0.062138
-0.0326301
-0.0327296
-0.0451994
-0.04898
-0.0432889
-0.0499948
-0.0824005
-0.0545338
-0.0538767
-0.0468105
-0.04886
-0.0449827
-0.0434833
-0.0430815
-0.0344787
-0.0193969
-0.00967845
-0.00427224
-0.00167344
-0.000584247
-0.000185373
-6.52289e-05
-3.55522e-05
-2.88863e-05
-2.93024e-05
-2.92862e-05
-2.8776e-05
-5.62979e-05
-2.85914e-05
-2.82547e-05
-2.4026e-05
-2.36003e-05
-4.31346e-05
-2.85898e-05
-5.64096e-05
-2.83725e-05
-4.24369e-05
-2.34914e-05
-2.87832e-05
-2.30315e-05
-2.40809e-05
-2.36346e-05
-2.91199e-05
-1.67668e-05
-2.69825e-05
-3.89093e-05
-3.88657e-05
-4.00907e-05
-8.33549e-05
-0.000144457
-0.000272501
-0.000475577
-0.000849055
-0.00141784
-0.0023872
-0.00377295
-0.00598841
-0.00891847
-0.0133548
-0.0186754
-0.0263398
-0.0345158
-0.0453508
-0.0485364
-0.0823699
-0.0493748
-0.0435271
-0.0448495
-0.0347883
-0.0250997
-0.0262307
-0.0187797
-0.0131723
-0.0133294
-0.00895908
-0.00608207
-0.00598364
-0.00378876
-0.00248849
-0.00238657
-0.00142445
-0.000904898
-0.000849219
-0.000478456
-0.000293862
-0.000272923
-0.000145262
-8.75775e-05
-8.43679e-05
-5.09887e-05
-8.44208e-05
-0.000145335
-8.77077e-05
-8.34867e-05
-4.01887e-05
-3.50447e-05
-2.60994e-05
-1.66998e-05
-2.74784e-05
-3.65747e-05
-8.32788e-05
-0.000143943
-0.00027104
-0.000477525
-0.000850226
-0.00142494
-0.00240207
-0.00379327
-0.00604334
-0.00896857
-0.013526
-0.0187296
-0.0267986
-0.034314
-0.0457963
-0.0489195
-0.0817259
-0.0523407
-0.042481
-0.0496905
-0.0380062
-0.024541
-0.0288693
-0.0202606
-0.012847
-0.0145332
-0.00956279
-0.00590911
-0.00648219
-0.00401512
-0.00241047
-0.00257465
-0.00149863
-0.000873217
-0.000908708
-0.000497445
-0.00028184
-0.000287561
-0.000148836
-8.28092e-05
-8.5776e-05
-4.07221e-05
-3.29856e-05
-2.59295e-05
-2.34554e-05
-2.36735e-05
-4.06688e-05
-2.02557e-05
-2.33504e-05
-3.52497e-05
-3.51809e-05
-8.19877e-05
-0.000145368
-0.000141503
-0.000144201
-8.5501e-05
-8.15577e-05
-8.35085e-05
-3.71702e-05
-3.39218e-05
-3.96317e-05
-4.90118e-05
-4.90255e-05
-3.90462e-05
-2.43062e-05
-2.37957e-05
-4.23228e-05
-5.45225e-05
-5.04529e-05
-3.98288e-05
-3.90645e-05
-8.41639e-05
-0.000145132
-0.000162397
-0.000272465
-0.00047813
-0.000848393
-0.001424
-0.00150072
-0.00238696
-0.0037868
-0.00599212
-0.00894565
-0.00895704
-0.0133645
-0.0187149
-0.0263202
-0.0345981
-0.0327043
-0.0326018
-0.0183182
-0.0183674
-0.00914641
-0.00900492
-0.0134783
-0.0187743
-0.0132276
-0.0190202
-0.0263765
-0.0266164
-0.0344668
-0.0251778
-0.0354111
-0.0447407
-0.0511924
-0.0484484
-0.0845914
-0.0563773
-0.0530783
-0.0487718
-0.0615301
-0.0312863
-0.0289317
-0.0376434
-0.0212884
-0.0273205
-0.019401
-0.0107884
-0.0136661
-0.00895805
-0.00489506
-0.0060902
-0.00373811
-0.00198695
-0.0024015
-0.00137629
-0.000713756
-0.000842478
-0.000450726
-0.000227816
-0.000260594
-0.000131974
-6.58526e-05
-7.51035e-05
-4.14117e-05
-3.89477e-05
-6.8991e-05
-7.85848e-05
-0.000118224
-0.000238593
-0.000269246
-0.000485103
-0.000858523
-0.00145727
-0.00141265
-0.00142735
-0.000900383
-0.000850303
-0.000847813
-0.000478247
-0.00029072
-0.000469863
-0.000511599
-0.000518799
-0.000161884
-0.000132061
-0.000173767
-0.000146081
-0.000136602
-0.000168532
-0.000182452
-5.94467e-05
-3.08206e-05
-1.66097e-05
-3.14896e-05
-1.89023e-05
-3.53269e-05
-5.25478e-05
-9.8258e-05
-0.000321635
-0.000549464
-0.00057372
-0.00165598
-0.00162163
-0.000985671
-0.000769865
-0.000862765
-0.00126395
-0.002186
-0.002453
-0.00389519
-0.0062112
-0.00924966
-0.00900233
-0.00898558
-0.00609373
-0.00603445
-0.00602527
-0.0038005
-0.00248614
-0.00378408
-0.00391152
-0.00383827
-0.00149535
-0.00126987
-0.00158598
-0.00146448
-0.00137879
-0.000549818
-0.00048338
-0.00045426
-0.000411613
-0.00027473
-0.000432178
-0.000331209
-0.000188092
-6.16104e-05
-3.22228e-05
-3.54501e-05
-2.9405e-05
-5.58218e-05
-3.93055e-05
-0.000101773
-0.000103342
-0.000144776
-0.00016161
-0.000272923
-0.000273218
-0.000478539
-0.000294406
-0.000477093
-0.000516734
-0.000850545
-0.000850799
-0.00142416
-0.00090694
-0.00142426
-0.00150238
-0.00239175
-0.00239332
-0.00378578
-0.00249496
-0.00379471
-0.00389829
-0.00599918
-0.0060072
-0.00894243
-0.00609893
-0.00898213
-0.00898298
-0.0133636
-0.0134043
-0.0187003
-0.0132058
-0.0188399
-0.0183189
-0.0262601
-0.0264291
-0.0345211
-0.0251258
-0.0348542
-0.0327028
-0.0448621
-0.0452619
-0.0490501
-0.0434557
-0.0490958
-0.0471196
-0.0543818
-0.0525587
-0.0458382
-0.0605656
-0.0373837
-0.046635
-0.0327928
-0.0312753
-0.0354953
-0.0346049
-0.0333139
-0.036401
-0.0369022
-0.028469
-0.0206713
-0.0204055
-0.00990777
-0.00993386
-0.00663158
-0.00424957
-0.00428471
-0.00425004
-0.00165217
-0.000578064
-0.000186324
-6.09845e-05
-3.19984e-05
-1.66455e-05
-2.71189e-05
-2.37468e-05
-3.5503e-05
-3.65438e-05
-2.61947e-05
-2.70835e-05
-3.4963e-05
-2.39656e-05
-2.94169e-05
-2.48851e-05
-2.39322e-05
-2.85443e-05
-2.26406e-05
-2.93571e-05
-2.42651e-05
-2.54268e-05
-3.63704e-05
-2.9068e-05
-2.97927e-05
-2.97607e-05
-2.9007e-05
-2.8955e-05
-2.82048e-05
-5.95933e-05
-2.97303e-05
-2.89914e-05
-2.89912e-05
-5.97008e-05
-2.97613e-05
-3.72524e-05
-6.81422e-05
-6.65632e-05
-5.51854e-05
-5.44001e-05
-5.0214e-05
-0.000171934
-0.000547457
-0.00157186
-0.004021
-0.009129
-0.00874413
-0.0076796
-0.00939511
-0.00888199
-0.00841901
-0.00822787
-0.0124587
-0.0140785
-0.019309
-0.0287111
-0.025869
-0.0246392
-0.0173174
-0.0178858
-0.0130991
-0.0145878
-0.0146558
-0.00975978
-0.0198916
-0.0357272
-0.0567149
-0.0570342
-0.0582304
-0.0451193
-0.0400369
-0.0439447
-0.0517473
-0.0465277
-0.0549901
-0.0834302
-0.0750952
-0.0694532
-0.0722466
-0.044555
-0.057691
-0.0602649
-0.073346
-0.04553
-0.0593114
-0.0604179
-0.0736862
-0.0457437
-0.0585913
-0.061232
-0.0736602
-0.0470698
-0.0583206
-0.0656879
-0.0922637
-0.0771077
-0.0755376
-0.0963862
-0.0953137
-0.0743378
-0.0529956
-0.0730044
-0.0611794
-0.0517714
-0.0574748
-0.0651852
-0.0532663
-0.0679504
-0.0792049
-0.0509833
-0.0550058
-0.0468261
-0.0486295
-0.0592323
-0.0455369
-0.0316323
-0.0357303
-0.0264037
-0.0177085
-0.0187387
-0.0133626
-0.00862696
-0.00879891
-0.00598939
-0.00374236
-0.00368607
-0.00238198
-0.00143757
-0.00137374
-0.000839836
-0.000490694
-0.000453713
-0.00026329
-0.000146368
-0.000134542
-7.5815e-05
-4.21314e-05
-4.08067e-05
-2.34656e-05
-2.32496e-05
-2.57538e-05
-4.06144e-05
-8.58328e-05
-0.000148719
-8.26038e-05
-8.31884e-05
-3.64243e-05
-3.28384e-05
-2.73318e-05
-1.66297e-05
-2.60013e-05
-2.69614e-05
-3.49841e-05
-3.65448e-05
-3.30438e-05
-6.25727e-05
-0.00018958
-0.000585785
-0.0005851
-0.00167489
-0.00430937
-0.00408567
-0.00375648
-0.00356082
-0.00344222
-0.00556235
-0.0059248
-0.0024029
-0.00270561
-0.00273051
-0.00240028
-0.00239404
-0.00150522
-0.00142329
-0.00238697
-0.00249297
-0.00379173
-0.0059881
-0.00609432
-0.00897245
-0.0133396
-0.0131908
-0.0187932
-0.0262339
-0.0250896
-0.0346673
-0.0277245
-0.028338
-0.046139
-0.0460471
-0.0358162
-0.0198162
-0.00972557
-0.00424288
-0.00165301
-0.000579926
-0.000187441
-6.17303e-05
-3.25999e-05
-1.67947e-05
-2.68144e-05
-3.62358e-05
-3.18583e-05
-6.09426e-05
-0.000186458
-0.000579964
-0.00165778
-0.00425703
-0.00975483
-0.0198784
-0.0358642
-0.0576593
-0.0571803
-0.0519886
-0.104105
-0.0751819
-0.0720608
-0.0604412
-0.073643
-0.0457864
-0.0459118
-0.0494772
-0.0753716
-0.0470025
-0.0477239
-0.0486625
-0.0757775
-0.0472215
-0.0479384
-0.0484324
-0.0757946
-0.0488107
-0.0496762
-0.0553548
-0.0970204
-0.077974
-0.0760243
-0.0763546
-0.0757029
-0.0579274
-0.052677
-0.0556319
-0.0966724
-0.0549574
-0.0587561
-0.0749458
-0.0570832
-0.0513354
-0.0557158
-0.0680444
-0.0526291
-0.0672795
-0.0673143
-0.0537799
-0.0684476
-0.0564369
-0.0514084
-0.0570204
-0.0564287
-0.0562294
-0.0567091
-0.0560038
-0.0514187
-0.0537948
-0.0585681
-0.0751026
-0.0659495
-0.0542815
-0.0703539
-0.0619768
-0.0543197
-0.085492
-0.0451892
-0.0559859
-0.0446839
-0.0491475
-0.0401815
-0.0292362
-0.0311079
-0.0234444
-0.0166828
-0.0166807
-0.0120512
-0.00802212
-0.00800798
-0.00539006
-0.00356282
-0.00335051
-0.00216544
-0.00132945
-0.0012582
-0.000757708
-0.000461115
-0.000410544
-0.000238943
-0.00013519
-0.000119778
-6.85433e-05
-3.89711e-05
-3.51016e-05
-1.86064e-05
-3.08949e-05
-2.34219e-05
-1.63517e-05
-2.85039e-05
-2.22234e-05
-2.24029e-05
-2.80334e-05
-2.20853e-05
-2.3141e-05
-2.83725e-05
-2.26943e-05
-2.33454e-05
-2.90165e-05
-2.31723e-05
-2.28148e-05
-2.87003e-05
-1.65941e-05
-2.60448e-05
-3.48058e-05
-3.8822e-05
-5.06084e-05
-8.36306e-05
-8.6971e-05
-0.000144429
-0.000143424
-0.000160128
-0.00026828
-0.000278979
-0.00047273
-0.00049255
-0.000428556
-0.000899069
-0.000706498
-0.00147936
-0.00125274
-0.0025355
-0.00195178
-0.00395331
-0.00325067
-0.00635614
-0.00478996
-0.0093592
-0.00746678
-0.0140921
-0.0103715
-0.0196353
-0.0151829
-0.0276634
-0.0199166
-0.0364982
-0.0273214
-0.0475171
-0.033673
-0.0395927
-0.0450343
-0.0440231
-0.0324087
-0.0350533
-0.0238336
-0.0264522
-0.0256893
-0.0179887
-0.0189568
-0.0124608
-0.0134531
-0.0131207
-0.00884333
-0.00905762
-0.00576848
-0.00606099
-0.00592263
-0.00384539
-0.00383635
-0.00235365
-0.00240975
-0.00236747
-0.0014814
-0.00143721
-0.000853176
-0.000851389
-0.0008411
-0.000507226
-0.000479951
-0.000272796
-0.000268065
-0.000268398
-0.000157181
-0.000143716
-7.84929e-05
-8.1719e-05
-8.07654e-05
-4.85801e-05
-3.4707e-05
-2.30449e-05
-2.00235e-05
-2.55425e-05
-2.30693e-05
-2.32599e-05
-4.03626e-05
-4.15159e-05
-5.52889e-05
-2.91845e-05
-3.51307e-05
-3.61853e-05
-2.6619e-05
-3.46433e-05
-3.86165e-05
-3.9708e-05
-4.96755e-05
-8.2375e-05
-8.20126e-05
-0.000147532
-0.000131464
-0.000284986
-0.00022625
-0.000329342
-0.000101373
-0.000102888
-8.27604e-05
-5.38953e-05
-4.19651e-05
-2.80536e-05
-5.60164e-05
-2.84245e-05
-2.38014e-05
-2.9194e-05
-2.52648e-05
-2.47346e-05
-2.53737e-05
-2.41335e-05
-4.30422e-05
-5.51195e-05
-5.07573e-05
-0.000173025
-0.000172312
-0.000162179
-0.00027102
-0.000270993
-0.00015822
-0.000330126
-0.00010247
-0.000103593
-8.34462e-05
-8.76482e-05
-0.000144873
-0.000272144
-0.000294055
-0.000477096
-0.000848503
-0.000906004
-0.00102422
-0.000548403
-0.000517942
-0.00157461
-0.0040284
-0.00390654
-0.00401883
-0.0015727
-0.000548708
-0.000517431
-0.00054477
-0.000171095
-0.000160703
-0.000142964
-0.000269513
-0.000286362
-0.000494869
-0.000902683
-0.00148571
-0.000709624
-0.000839093
-0.000430547
-0.000452804
-0.000227803
-0.00026289
-0.000132287
-0.000134163
-0.00014591
-0.000136832
-0.000240512
-0.00027486
-0.000414568
-0.000482219
-0.000509907
-0.000844315
-0.000892614
-0.0014001
-0.00141574
-0.00149311
-0.00236479
-0.00246786
-0.0037481
-0.00375239
-0.00384935
-0.00590079
-0.00600471
-0.0088253
-0.00883354
-0.00881697
-0.0131292
-0.012534
-0.0184334
-0.0257303
-0.0239206
-0.0341476
-0.0436443
-0.0397789
-0.0444497
-0.0346398
-0.0193713
-0.00963542
-0.00424763
-0.00166289
-0.000580424
-0.000184167
-6.47991e-05
-3.52775e-05
-2.86943e-05
-2.90942e-05
-2.92241e-05
-2.84775e-05
-4.28231e-05
-5.48941e-05
-5.42557e-05
-4.20459e-05
-2.81341e-05
-2.38216e-05
-2.93047e-05
-2.36285e-05
-2.40824e-05
-2.37076e-05
-4.21663e-05
-5.41027e-05
-4.98595e-05
-8.28106e-05
-8.24341e-05
-9.75102e-05
-9.90824e-05
-6.65368e-05
-3.63336e-05
-2.90818e-05
-2.90278e-05
-5.96816e-05
-2.82811e-05
-2.85917e-05
-5.61322e-05
-9.89667e-05
-0.000171394
-0.000161127
-4.87648e-05
-3.87133e-05
-8.25582e-05
-4.90134e-05
-8.12074e-05
-8.511e-05
-0.000141182
-0.000143452
-0.000161615
-0.000271002
-0.000292447
-0.000475747
-0.00051518
-0.000842553
-0.000898101
-0.00141273
-0.0014092
-0.00148584
-0.00236631
-0.00237626
-0.00374354
-0.00592257
-0.00580177
-0.00882506
-0.00904151
-0.00398283
-0.00155775
-0.000542712
-0.000170455
-9.87206e-05
-6.63387e-05
-3.62169e-05
-0.000101366
-0.00018729
-9.94133e-05
-9.80184e-05
-9.93331e-05
-0.000101562
-0.000187339
-0.000173181
-0.000162927
-0.000549109
-0.000518591
-0.00157335
-0.00150316
-0.00166846
-0.00428027
-0.00980846
-0.00989923
-0.0201987
-0.0191871
-0.0182478
-0.0339399
-0.0512936
-0.0461339
-0.068036
-0.0536368
-0.106569
-0.0737892
-0.0726872
-0.064986
-0.083715
-0.077893
-0.0798625
-0.0774941
-0.105989
-0.0729473
-0.0719752
-0.0604471
-0.073311
-0.0456364
-0.0466483
-0.0501015
-0.0749728
-0.0467964
-0.0486041
-0.049455
-0.0753784
-0.0470222
-0.0486769
-0.0493539
-0.0753838
-0.0487109
-0.0500822
-0.066189
-0.044266
-0.0326325
-0.0326659
-0.0346914
-0.0369553
-0.0243124
-0.0283953
-0.0205422
-0.024572
-0.0272387
-0.0181075
-0.0256185
-0.0346405
-0.0326436
-0.0434567
-0.0475832
-0.0346436
-0.0328351
-0.0300631
-0.0401358
-0.0410656
-0.0552188
-0.0574167
-0.0561679
-0.0437724
-0.0322493
-0.0432721
-0.040764
-0.0434493
-0.0321581
-0.0432493
-0.0408094
-0.0435187
-0.0322703
-0.0433504
-0.0571585
-0.0559411
-0.0516024
-0.0502934
-0.06075
-0.0756966
-0.0579641
-0.0769573
-0.0779777
-0.0748233
-0.0587509
-0.0549738
-0.0553872
-0.0962323
-0.0557691
-0.0623001
-0.0936036
-0.0790205
-0.0755367
-0.0580353
-0.0551181
-0.0666993
-0.0499189
-0.049588
-0.065655
-0.0433203
-0.0346176
-0.0345469
-0.0193732
-0.00964987
-0.00425676
-0.0016671
-0.000582068
-0.000184726
-6.50132e-05
-3.5415e-05
-2.83021e-05
-2.90661e-05
-3.07935e-05
-2.47546e-05
-2.38174e-05
-2.86667e-05
-2.33662e-05
-2.25579e-05
-2.78572e-05
-2.9061e-05
-2.81556e-05
-2.24757e-05
-2.23575e-05
-2.86876e-05
-2.25734e-05
-3.87535e-05
-2.22887e-05
-2.82952e-05
-2.41162e-05
-2.84124e-05
-2.35948e-05
-4.20448e-05
-2.81284e-05
-2.84747e-05
-5.61361e-05
-2.91693e-05
-2.91565e-05
-2.84899e-05
-2.80119e-05
-2.37247e-05
-2.30547e-05
-2.91819e-05
-2.31001e-05
-4.27823e-05
-5.49059e-05
-5.4246e-05
-4.88238e-05
-3.95503e-05
-5.61278e-05
-2.94625e-05
-3.5562e-05
-3.21923e-05
-6.16617e-05
-0.000188404
-0.000584855
-0.00166919
-0.00428172
-0.00980374
-0.0199632
-0.0199813
-0.0360777
-0.0362788
-0.0572641
-0.0525433
-0.0537605
-0.0540179
-0.0824275
-0.0620122
-0.0728242
-0.075128
-0.103828
-0.0517959
-0.0539717
-0.0540888
-0.0528934
-0.055016
-0.0559007
-0.0810863
-0.0496953
-0.0512829
-0.0460223
-0.0549389
-0.067714
-0.0494726
-0.0331941
-0.0359825
-0.0577385
-0.0575066
-0.0459199
-0.046478
-0.0288423
-0.0148182
-0.00674567
-0.00275284
-0.00100638
-0.000994176
-0.000330498
-0.000330507
-0.000103446
-0.000102337
-0.000175052
-0.000550765
-0.00157672
-0.00403605
-0.0092101
-0.0186747
-0.0279398
-0.0275703
-0.0277522
-0.0144088
-0.006614
-0.00270826
-0.00269998
-0.000992684
-0.00100236
-0.00033175
-0.000270485
-0.000287231
-0.000495605
-0.000904713
-0.00148728
-0.000867904
-0.00084635
-0.000475758
-0.00028068
-0.000336352
-0.000171354
-0.000161366
-0.000143452
-5.42271e-05
-4.22491e-05
-2.29748e-05
-5.01418e-05
-9.91488e-05
-9.75983e-05
-5.39484e-05
-2.86563e-05
-2.86546e-05
-2.93244e-05
-2.52346e-05
-2.59192e-05
-3.08338e-05
-2.84e-05
-5.98061e-05
-3.07812e-05
-2.92846e-05
-2.39247e-05
-2.83834e-05
-3.0747e-05
-2.46249e-05
-2.3583e-05
-2.39863e-05
-2.39344e-05
-2.34868e-05
-2.38919e-05
-2.92784e-05
-2.82749e-05
-2.85201e-05
-2.80716e-05
-2.88533e-05
-5.367e-05
-2.76885e-05
-2.23712e-05
-9.71496e-05
-9.88656e-05
-6.63557e-05
-3.62087e-05
-0.000101394
-9.90191e-05
-0.00017142
-0.000161315
-0.000132713
-0.000516052
-0.000431574
-0.000545364
-0.000515457
-0.0015652
-0.00149663
-0.00141889
-0.00238477
-0.00255442
-0.00397353
-0.00641749
-0.00942373
-0.00585404
-0.00598437
-0.00377664
-0.00239172
-0.00279634
-0.00148421
-0.00126076
-0.0038005
-0.00327486
-0.00400322
-0.00387913
-0.00401969
-0.0038942
-0.00912022
-0.00896684
-0.0183226
-0.0183345
-0.0176224
-0.0158982
-0.0186048
-0.0145896
-0.00680958
-0.00281478
-0.0010334
-0.000338011
-0.000337091
-0.000336035
-0.000587204
-0.00102369
-0.00101211
-0.00167846
-0.00277672
-0.00273339
-0.00167827
-0.000587069
-0.000337235
-0.000336186
-0.000335352
-0.000189543
-0.000590166
-0.00168332
-0.00428737
-0.0042801
-0.00669433
-0.00656604
-0.00969051
-0.0142991
-0.0139824
-0.0194222
-0.0269384
-0.0275377
-0.0325774
-0.0619754
-0.0463877
-0.0658511
-0.0442652
-0.0430683
-0.0614177
-0.0483704
-0.0649075
-0.0736323
-0.0798752
-0.0772612
-0.105179
-0.0727389
-0.0621655
-0.0584692
-0.0788704
-0.079818
-0.0557826
-0.0624493
-0.0743819
-0.0797751
-0.0743953
-0.0727535
-0.104573
-0.0775961
-0.0801275
-0.0801662
-0.0803764
-0.080178
-0.0772979
-0.0789905
-0.0710492
-0.0612343
-0.0736568
-0.047085
-0.0457674
-0.0493687
-0.075405
-0.0486676
-0.0475894
-0.0484497
-0.075842
-0.048728
-0.047816
-0.0482036
-0.0758092
-0.0499296
-0.0555473
-0.0965911
-0.0803196
-0.075068
-0.0589991
-0.0549187
-0.0656866
-0.0433121
-0.0346144
-0.01941
-0.00966914
-0.00426765
-0.00167302
-0.000585196
-0.00018671
-0.000335598
-0.000336094
-0.000280318
-0.00047453
-0.000844198
-0.000867283
-0.00141619
-0.00238045
-0.00255018
-0.00397088
-0.0064097
-0.0094195
-0.00482734
-0.00598999
-0.00327042
-0.0036842
-0.00196449
-0.00238141
-0.00125846
-0.00137201
-0.0014353
-0.00135356
-0.00216687
-0.00236774
-0.00338096
-0.00384812
-0.00385935
-0.00593663
-0.00599523
-0.00884356
-0.00885222
-0.00884887
-0.0130447
-0.0129484
-0.0184314
-0.0179059
-0.0255394
-0.0246422
-0.0341086
-0.0342065
-0.0322215
-0.0435843
-0.0408254
-0.0433894
-0.0434173
-0.0321923
-0.0341155
-0.034153
-0.0433237
-0.0407566
-0.0432035
-0.0325588
-0.0182253
-0.00906586
-0.00399598
-0.00156358
-0.000545076
-0.000515523
-0.00148296
-0.00156405
-0.00149366
-0.00400118
-0.00387374
-0.00377122
-0.00597647
-0.00585393
-0.00892325
-0.0133285
-0.0143164
-0.0198292
-0.0283741
-0.0369664
-0.0205397
-0.0264219
-0.0154843
-0.0187409
-0.0105446
-0.0133679
-0.007547
-0.00879735
-0.00861839
-0.00816554
-0.0121281
-0.0126533
-0.0171118
-0.0189635
-0.0181082
-0.0256211
-0.0246403
-0.0346129
-0.0340462
-0.0322524
-0.0437363
-0.0406961
-0.0434737
-0.0475577
-0.0326479
-0.0346357
-0.0328039
-0.0401072
-0.0410374
-0.0431489
-0.0351345
-0.0300301
-0.0316084
-0.0357349
-0.0455671
-0.0280297
-0.0331162
-0.0186166
-0.00917568
-0.00401821
-0.00156826
-0.000547088
-0.000173611
-5.56326e-05
-2.9335e-05
-2.32205e-05
-2.34396e-05
-1.87747e-05
-2.32649e-05
-3.55007e-05
-3.49868e-05
-3.11703e-05
-1.6444e-05
-2.35308e-05
-3.37375e-05
-3.94409e-05
-3.69608e-05
-5.03074e-05
-8.31121e-05
-8.72587e-05
-0.000144494
-0.000161861
-0.00027076
-0.000291857
-0.00047533
-0.000472652
-0.000511982
-0.000840376
-0.00086308
-0.00140893
-0.000994333
-0.000984433
-0.000842527
-0.000328854
-0.000270606
-0.000187277
-0.000186434
-6.0952e-05
-3.19432e-05
-3.5585e-05
-2.69757e-05
-3.08291e-05
-3.55242e-05
-5.2937e-05
-3.94803e-05
-6.91417e-05
-7.92349e-05
-0.000144583
-0.000158302
-0.000269708
-0.000288933
-0.000467538
-0.000475309
-0.00051532
-0.000843466
-0.000899387
-0.00141466
-0.00149073
-0.00236352
-0.0024653
-0.00374709
-0.00374529
-0.00384327
-0.00589998
-0.00638199
-0.00265633
-0.00236331
-0.00163826
-0.00163618
-0.000576421
-0.000329994
-0.000269973
-0.000102859
-8.3294e-05
-5.97352e-05
-9.93637e-05
-0.000121156
-0.00017006
-0.000183382
-0.000323244
-0.000270307
-0.000550199
-0.00046022
-0.000764386
-0.000856715
-0.0014435
-0.00148713
-0.00237471
-0.00245642
-0.00373493
-0.00375858
-0.00385917
-0.00590047
-0.00600926
-0.00883516
-0.00882192
-0.0130572
-0.012946
-0.0184197
-0.0184595
-0.0179116
-0.0255363
-0.0181993
-0.0142287
-0.0066531
-0.00655198
-0.00426878
-0.00167342
-0.000585306
-0.000186756
-0.000335428
-0.000336413
-0.00102153
-0.00102749
-0.000545237
-0.0015642
-0.00399773
-0.0067609
-0.00668235
-0.00277097
-0.00272901
-0.00101031
-0.00101926
-0.000335698
-0.000292366
-0.000271047
-0.000161629
-0.000270471
-0.000475684
-0.000514794
-0.000841435
-0.000842765
-0.000475529
-0.000474499
-0.000515042
-0.0008427
-0.000841934
-0.000475119
-0.000269794
-0.000161409
-0.00027065
-0.00014422
-0.000144413
-0.00014451
-0.000143647
-0.000160859
-0.000268357
-0.000270348
-0.000291946
-0.000473037
-0.000513625
-0.000838475
-0.000841817
-0.000898386
-0.00140925
-0.00148968
-0.00235943
-0.00236157
-0.00236018
-0.00236322
-0.00148993
-0.00141443
-0.00141412
-0.00089941
-0.00141263
-0.00149291
-0.00236334
-0.00236771
-0.00141549
-0.000893351
-0.000844159
-0.00085694
-0.000509904
-0.000467906
-0.000289118
-0.000269572
-0.000270781
-0.000158258
-0.000141253
-0.000143353
-8.31683e-05
-5.0183e-05
-8.2965e-05
-8.72102e-05
-8.37756e-05
-5.04942e-05
-8.35322e-05
-8.70613e-05
-8.29e-05
-4.9988e-05
-8.26275e-05
-0.000142955
-0.000140191
-8.46959e-05
-0.000102122
-6.01979e-05
-3.16171e-05
-1.65207e-05
-2.66877e-05
-2.60483e-05
-2.67386e-05
-2.68196e-05
-1.67105e-05
-3.21888e-05
-3.64113e-05
-2.60691e-05
-2.68632e-05
-1.65905e-05
-2.87502e-05
-2.27906e-05
-2.2707e-05
-2.37741e-05
-3.47005e-05
-3.96188e-05
-3.87806e-05
-3.88247e-05
-3.94221e-05
-3.68362e-05
-3.90853e-05
-3.34921e-05
-2.23348e-05
-2.26574e-05
-2.86051e-05
-2.26618e-05
-4.189e-05
-5.40655e-05
-0.00017092
-0.000172297
-0.000546137
-0.00156451
-0.00276435
-0.00246839
-0.00375111
-0.0038478
-0.00589254
-0.00590014
-0.00589784
-0.00592518
-0.00385916
-0.00375194
-0.0037584
-0.00245861
-0.00237449
-0.00242644
-0.00148722
-0.00140134
-0.00144421
-0.000858271
-0.0007658
-0.00126249
-0.00135581
-0.00217001
-0.00338616
-0.00354046
-0.00545073
-0.00806521
-0.00817699
-0.012142
-0.0171314
-0.0167778
-0.0238108
-0.0263497
-0.0196251
-0.0138294
-0.00960726
-0.00643445
-0.00417033
-0.00266278
-0.00160721
-0.000980726
-0.000550848
-0.000460748
-0.000415566
-0.000482396
-0.000275467
-0.000240969
-0.000121495
-0.000137164
-0.000170227
-0.000323417
-9.93752e-05
-6.92899e-05
-7.94257e-05
-8.26639e-05
-4.89748e-05
-8.11453e-05
-8.51399e-05
-0.000102792
-5.95302e-05
-3.07756e-05
-1.64635e-05
-2.35453e-05
-3.11859e-05
-1.87946e-05
-3.55406e-05
-3.95035e-05
-5.29343e-05
-3.54941e-05
-2.32884e-05
-3.49926e-05
-3.94151e-05
-3.69512e-05
-3.36843e-05
-3.54826e-05
-3.17519e-05
-6.04897e-05
-0.000185359
-0.000182926
-0.000572122
-0.00163743
-0.00419282
-0.0038595
-0.00593682
-0.00610355
-0.00384967
-0.00373807
-0.00268302
-0.000991542
-0.000330168
-0.000331109
-0.000573852
-0.0016298
-0.00415284
-0.00646856
-0.00600078
-0.00885177
-0.00884964
-0.0130389
-0.0131457
-0.0131384
-0.0136494
-0.00888192
-0.00885076
-0.00909511
-0.00581411
-0.00483052
-0.00664511
-0.00658102
-0.0143074
-0.0144564
-0.0133398
-0.0143301
-0.0198315
-0.0154966
-0.0174018
-0.00863928
-0.00755506
-0.00909198
-0.00893297
-0.00893406
-0.0182915
-0.0182287
-0.0187326
-0.012704
-0.0144873
-0.00906957
-0.0182312
-0.027412
-0.026948
-0.0142836
-0.0139758
-0.00655808
-0.0066641
-0.00967158
-0.00970011
-0.00969037
-0.00427994
-0.00277857
-0.00277028
-0.00102109
-0.00101013
-0.00101887
-0.00102683
-0.00279486
-0.00239112
-0.00272711
-0.00100053
-0.000991218
-0.000995461
-0.000998557
-0.000331069
-0.000329519
-0.000102938
-0.000101778
-3.52978e-05
-0.000330609
-0.00271215
-0.00269887
-0.00658241
-0.00662212
-0.00669126
-0.0144091
-0.014315
-0.0144671
-0.00664625
-0.0187095
-0.0262936
-0.02432
-0.0346401
-0.0279716
-0.0275922
-0.0459302
-0.0459843
-0.0494503
-0.0678192
-0.0953665
-0.096345
-0.0529897
-0.0656763
-0.0922772
-0.0770985
-0.0579417
-0.0756735
-0.0765301
-0.0588533
-0.0553544
-0.0972037
-0.0785234
-0.0758862
-0.100522
-0.0853736
-0.0854396
-0.0802518
-0.0737088
-0.0485832
-0.0651149
-0.0431705
-0.0345329
-0.0194217
-0.0143085
-0.00669917
-0.00668124
-0.00911862
-0.00908867
-0.00892365
-0.0182866
-0.0182154
-0.0173946
-0.00863448
-0.00379787
-0.0060969
-0.00909139
-0.0088813
-0.0131379
-0.012946
-0.0185773
-0.0184483
-0.0179618
-0.0254781
-0.0246229
-0.0255291
-0.018201
-0.00905426
-0.00666118
-0.00675788
-0.0144821
-0.0127064
-0.0142816
-0.0139743
-0.0065572
-0.00272858
-0.00276314
-0.00156401
-0.000546058
-0.00017227
-0.000271456
-0.00033059
-0.000474319
-0.000103717
-0.000144257
-8.39378e-05
-3.65483e-05
-3.96867e-05
-2.69375e-05
-1.66817e-05
-3.2531e-05
-6.16262e-05
-0.000987723
-0.000990454
-0.000842019
-0.000573133
-0.000980073
-0.00125999
-0.00160534
-0.00163977
-0.00266105
-0.00242329
-0.00416582
-0.00353598
-0.00544368
-0.00580615
-0.00805342
-0.00642986
-0.00959695
-0.00956525
-0.0041981
-0.0026792
-0.00236738
-0.00266293
-0.00236394
-0.00416766
-0.00645766
-0.00592354
-0.00639687
-0.00883611
-0.00944834
-0.0138044
-0.0131404
-0.0138198
-0.0136363
-0.0196059
-0.0167572
-0.0237884
-0.0245503
-0.0272186
-0.0263335
-0.0193543
-0.0345587
-0.0514894
-0.052256
-0.0554436
-0.0613298
-0.0564075
-0.04251
-0.026045
-0.025764
-0.0189912
-0.0337977
-0.0505411
-0.0618875
-0.0572585
-0.0418982
-0.0255337
-0.0136059
-0.0184541
-0.0130561
-0.00943782
-0.00416772
-0.018956
-0.0337687
-0.0505792
-0.0620831
-0.0573489
-0.0419229
-0.0255046
-0.0135766
-0.0130551
-0.0138399
-0.00648793
-0.00269426
-0.00155615
-0.000544077
-0.000172621
-0.000144148
-0.00049172
-0.00396667
-0.00896624
-0.0179558
-0.0260877
-0.0426367
-0.0509971
-0.0634623
-0.0572333
-0.0482974
-0.0538383
-0.05574
-0.0505484
-0.0338696
-0.0335731
-0.0188621
-0.00938678
-0.00414074
-0.00162472
-0.000571666
-0.000184513
-0.000185801
-6.09719e-05
-0.000103751
-0.000103531
-3.63245e-05
-3.46334e-05
-3.52228e-05
-3.04794e-05
-5.89364e-05
-0.000181308
-0.000328512
-0.000287865
-0.000465138
-0.000473968
-0.000543885
-0.000335224
-0.000334865
-0.000101227
-0.000334909
-0.000334962
-0.000160385
-4.84899e-05
-3.84917e-05
-8.50635e-05
-6.56894e-05
-0.000513545
-0.00102377
-0.00101803
-0.00100875
-0.00101706
-0.00275884
-0.0027254
-0.00276168
-0.001561
-0.00399129
-0.00399483
-0.00905784
-0.0142428
-0.0129526
-0.0130576
-0.00881824
-0.0130359
-0.0184482
-0.0178958
-0.0254781
-0.0255375
-0.0184169
-0.0184756
-0.0179621
-0.0254606
-0.0257773
-0.0184446
-0.0129577
-0.0185915
-0.0189694
-0.0126683
-0.0105485
-0.0138299
-0.00955479
-0.0193358
-0.0345265
-0.035159
-0.0431597
-0.0522549
-0.0554621
-0.0514479
-0.0613691
-0.0564125
-0.0425674
-0.0260933
-0.0189334
-0.00941755
-0.0136406
-0.00641294
-0.00884587
-0.00883157
-0.00883844
-0.00882848
-0.00883879
-0.0130854
-0.0130471
-0.0129491
-0.0184356
-0.017952
-0.0256113
-0.0255191
-0.0246384
-0.0341111
-0.0342507
-0.0341661
-0.0246237
-0.0273766
-0.0269207
-0.0194136
-0.0194362
-0.026274
-0.0345345
-0.0326132
-0.0327347
-0.0622406
-0.0467998
-0.0458657
-0.0649442
-0.0735714
-0.0787352
-0.0773321
-0.0802749
-0.080415
-0.0729624
-0.0476576
-0.0639304
-0.0416079
-0.0616663
-0.06188
-0.0616681
-0.0620596
-0.0624557
-0.0582816
-0.0788022
-0.104611
-0.0530255
-0.077897
-0.0829009
-0.0801883
-0.0855584
-0.0806115
-0.0755467
-0.101793
-0.0761198
-0.0500843
-0.0555973
-0.0967357
-0.0550069
-0.0655102
-0.0498064
-0.062354
-0.0417377
-0.0345493
-0.0262933
-0.0269435
-0.0269506
-0.0274046
-0.026887
-0.0142374
-0.0269002
-0.0263204
-0.0139724
-0.0142427
-0.00666005
-0.00673892
-0.00906034
-0.0182347
-0.0182051
-0.0268932
-0.0325633
-0.0310581
-0.0280448
-0.0491313
-0.0360294
-0.045955
-0.0447501
-0.0424266
-0.0458901
-0.0555704
-0.0624574
-0.0465955
-0.0457622