/*--------------------------------*- C++ -*----------------------------------*\
| =========                 |                                                 |
| \\      /  F ield         | OpenFOAM: The Open Source CFD Toolbox           |
|  \\    /   O peration     | Version:  2306                                  |
|   \\  /    A nd           | Website:  www.openfoam.com                      |
|    \\/     M anipulation  |                                                 |
\*---------------------------------------------------------------------------*/
FoamFile
{
    version     2.0;
    format      ascii;
    arch        "LSB;label=32;scalar=64";
    class       volScalarField;
    location    "0.7";
    object      gradTx;
}
// * * * * * * * * * * * * * * * * * * * * * * * * * * * * * * * * * * * * * //

dimensions      [0 -1 0 1 0 0 0];

internalField   nonuniform List<scalar> 
5322
(
-0.249867
0.00623009
0.00748011
0.000727279
-0.00019557
-0.000227054
-5.12715e-05
7.45674e-05
3.2374e-05
-0.00021911
-0.000934587
0.0100901
0.0155318
-0.213946
-0.0056519
0.372566
-0.292748
-0.00456715
-0.223507
0.144558
-0.196519
0.171803
-0.18173
0.183981
-0.186461
0.180644
-0.181066
0.189697
-0.186995
0.189099
-0.17945
0.206277
-0.154839
0.238993
0.00440925
0.30303
0.213726
-0.0851978
0.239226
-0.0137738
-0.2269
0.228119
-0.0138136
-0.242701
0.241209
-0.00829666
-0.257959
0.225402
-0.00567173
-0.270394
-0.266876
-0.387276
-0.121467
0.258707
-0.0165341
-0.426908
-0.0121918
0.407849
-0.00489616
-0.407565
-0.00175875
0.397196
-0.00228324
-0.400322
-0.000112985
0.391161
0.00501794
-0.396451
0.0173066
0.324805
0.0132755
-0.344395
0.390266
-0.403825
0.388731
-0.395878
0.396622
-0.395859
0.450656
-0.325022
0.158892
-0.211907
-0.137415
0.236965
0.0243161
-0.132502
0.157904
-0.425896
-0.15895
0.50492
-0.021786
0.00915912
0.016864
0.0773291
0.357981
-0.0826044
-0.00936337
-0.0402363
0.162788
-0.377553
-0.377869
0.839749
-0.0395932
0.276162
0.449584
-0.00476809
0.00282578
0.00370931
0.00222364
0.00107112
0.000414272
-0.000117647
-0.0010908
-0.00265955
0.00416596
-0.0014101
-0.122987
-0.121324
0.0128652
0.0773174
0.0043821
0.11792
-0.141045
-0.0105642
-0.0325082
0.218662
0.179861
0.0500011
0.140639
0.0908965
0.0691124
0.150997
0.0762148
0.0817679
0.153626
0.066721
0.128694
0.174631
0.197965
0.00851006
-0.145112
0.00799325
0.0966973
-0.117153
-0.125713
0.017994
0.051922
0.0285591
-0.0983844
-0.108136
0.020258
0.0321849
0.0387981
-0.10671
-0.101241
0.0204272
0.0211492
0.0614435
-0.117081
0.152783
-0.329471
-0.441579
0.381108
-0.446834
-0.018743
-0.306964
0.0025228
0.299066
-0.0718007
0.356114
0.176525
0.263238
-0.394757
0.153985
-0.340145
0.226576
0.295388
-0.36181
0.00829404
-0.307606
0.271367
0.337781
-0.359883
-0.00196554
-0.301631
0.28802
0.351874
-0.361914
-0.000361044
-0.302004
0.295427
0.358789
-0.367157
0.000493824
-0.306519
0.297779
0.362961
-0.376332
0.00094067
-0.314979
0.296201
0.365049
-0.389054
0.00159775
-0.325431
0.290259
0.364423
-0.400594
0.00308236
-0.331137
0.276141
0.344692
-0.0746164
0.155535
-0.374708
-0.382121
0.84483
-0.0294649
-0.0322262
0.0188949
0.0834916
0.355701
-0.0650397
-0.00572953
-0.0727059
0.148217
-0.381739
-0.375533
0.83997
-0.0478517
0.276226
-0.00968002
0.00474109
0.00444897
0.00283688
0.00145866
0.000622851
-4.08056e-06
-0.00100593
-0.00241513
0.00415785
-0.0012929
0.0977202
-0.108471
0.108095
-0.0981717
0.00019991
0.0982775
-0.0928686
-0.000517007
-0.116933
6.67843e-05
-0.0982952
-7.4326e-05
0.0926344
0.00364382
0.109213
-0.00892021
-0.11808
0.00038471
0.116774
-0.000118423
-1.65087e-05
0.206889
-0.355822
0.355401
-0.351508
0.370476
-0.379642
0.397898
-0.397748
0.405405
-0.405167
0.410429
-0.410518
0.416536
-0.415452
0.424053
-0.419302
0.430758
-0.416149
0.429823
-0.231296
0.00491539
0.233516
0.00631975
-0.41927
0.40505
0.00211601
-0.418386
0.409789
0.0014302
-0.41213
0.406428
0.000944912
-0.405099
0.401393
0.000651209
-0.399092
0.396008
0.000664917
-0.393474
0.389082
0.00104933
-0.384457
0.373554
0.00118698
-0.356233
0.000212932
0.35612
-0.373775
-0.0016731
-0.369918
0.350982
-0.000660251
-0.20865
-0.0135558
0.212236
-0.368494
0.356225
-0.375707
0.378291
-0.386044
0.386918
-0.390073
0.392791
-0.393959
0.399938
-0.397919
0.409538
-0.39945
0.419704
-0.390253
0.421802
-0.227969
-0.0493152
0.0989666
0.0124061
-0.391574
0.350255
0.00480989
-0.380909
0.366015
0.000606603
-0.364891
0.361454
-0.00053333
-0.356554
0.355254
-0.000701012
-0.351994
0.351508
-0.00184886
-0.348254
0.349659
-0.00453833
-0.341474
0.343386
-0.0103656
-0.316669
0.289634
0.00622771
-0.1049
0.178525
0.293579
0.00924625
0.0365146
-0.0536593
0.1503
-0.463597
0.352205
-0.442299
-0.297838
-0.368279
0.00975723
0.242158
0.267851
-0.38514
0.148884
-0.345616
-0.0257107
0.0184825
-0.139824
0.011963
-0.00564532
-0.148321
0.0150478
-0.0239992
-0.350694
-0.380346
0.274762
-0.356813
0.00443369
0.326299
-0.356595
0.345512
-0.359351
0.00218918
0.354662
-0.365182
0.359263
-0.374782
0.0135641
0.360671
-0.386115
0.35776
-0.392028
0.0809834
0.0186757
0.0117039
0.0123471
0.00568968
0.0142848
0.37284
-0.396214
0.00370167
-0.321371
0.266662
0.371652
-0.393475
0.00778445
-0.345492
0.242039
0.483852
-0.0561375
0.00987824
-0.409808
-0.378356
0.795489
-0.0496593
0.0129065
0.0217933
-0.23954
0.0544085
0.185813
-0.192349
0.0156745
0.197153
-0.178728
0.00241662
0.189879
-0.181409
-0.000379963
0.179884
-0.174523
-0.00467471
0.185879
-0.167584
-0.0113624
0.194962
-0.131218
-0.0189091
0.229755
0.0871886
0.0644623
-0.0169094
-0.00879326
0.0906784
-0.0398473
0.409166
-0.438256
0.42973
-0.440329
-0.28507
-0.369687
-0.000497681
0.281206
0.354795
-0.3669
-0.00174213
-0.284268
0.00221535
0.00013806
0.00304155
-0.000369309
0.00588285
0.023414
0.0216123
0.0390226
-0.0121878
0.00591129
0.163514
0.259624
0.21655
0.0732201
0.329466
0.131074
0.0618054
0.0187815
0.011252
-0.00638455
-0.00480516
0.00265833
0.0060482
-0.0521486
-0.000695603
0.0606038
-0.0559134
0.43859
-0.446198
0.445454
-0.459633
-0.301458
-0.386036
0.0016039
0.283853
0.370239
-0.375934
0.000585169
-0.29047
0.00392845
0.00175851
0.00036966
0.000182008
0.000450939
0.00140822
0.00214895
0.00154202
0.00482738
0.0072992
0.0707211
-0.00114885
-0.000567362
-0.00224514
0.000426168
0.000950689
-0.0092511
0.0214778
-0.247549
-0.000691521
0.00335398
0.000160175
-0.00334746
0.379715
-3.94622e-05
-0.397713
0.384431
-0.389092
-0.0013548
0.398351
4.21058e-05
-0.405322
0.393788
-0.395695
-0.000556511
0.406178
0.000277193
-0.410193
0.399909
-0.400575
4.75712e-05
0.412095
0.000501079
-0.416116
0.406627
-0.40485
0.000637449
0.417875
0.000443841
-0.42331
0.414507
-0.407149
0.00151517
0.42216
-0.00073644
-0.428984
0.421054
-0.401882
0.00240461
0.416494
-0.00365214
-0.426272
0.420243
-0.231681
-0.000295577
0.230033
-0.0142221
-0.0298214
-0.030837
-0.0329244
-0.406552
0.10048
0.0882639
-0.0344265
-0.0708563
-0.0346951
-0.45613
0.0964369
-0.119657
-0.197944
-0.0706348
-0.0570352
-0.0606165
-0.0265288
-0.0121049
0.00251513
-0.00140053
-0.0104738
-0.0124801
-0.00758841
-0.0131738
-0.0248059
0.00397446
0.192042
0.225005
0.220666
0.254241
0.314571
0.299496
0.234138
0.23568
0.153813
-0.136773
0.0441434
-0.0160459
-0.0112371
0.0400677
-0.119239
-0.000324754
-0.000186434
-0.000384336
3.28306e-05
-0.0753317
-0.0858306
-0.085065
-0.0762533
0.0755945
-0.0641566
0.0023857
0.0854599
-0.073727
-0.0740249
0.00236736
0.0851437
-2.49463e-06
1.70378e-05
4.12344e-05
4.54116e-05
-0.00225538
0.00301718
-0.00153576
-0.000842095
-9.3537e-05
0.0004998
0.00123775
0.00502822
0.00362084
0.00156622
0.00895306
-0.00272459
0.053978
-0.0769718
0.45739
-0.474676
0.475687
-0.00967797
-0.139555
-0.0211048
0.0384556
-0.00391
-0.00831557
-0.00383173
-0.0280746
-0.0577234
-0.114631
-0.262067
-0.268051
-0.66433
-0.310965
-0.271559
-0.00901922
-0.106977
0.0848319
-0.539648
-0.322888
-0.151401
0.243908
0.0196326
0.0125836
-0.254736
0.269495
0.00159253
-0.0319772
-0.279746
0.270779
0.000475875
-0.0356303
-0.273009
0.269892
0.00231871
-0.0583237
-0.260494
0.192449
-0.154037
0.126667
0.0960626
0.282828
-0.132898
-0.0767195
0.0420052
0.169635
-0.552571
-0.0305382
-0.323387
0.283584
0.26196
0.249389
0.313222
0.150659
0.0336209
0.120557
0.181926
0.299769
-0.137562
0.0286643
0.219684
-0.186731
0.000318249
0.189805
-0.19024
-0.00231034
0.181966
-0.184041
-0.00132405
0.178946
-0.180459
-0.00115442
0.176786
-0.180292
-0.00248676
0.169609
-0.189322
-0.0148933
0.14329
-0.218525
-0.0813373
-0.00339726
-0.293979
-0.182009
0.106204
-0.28983
0.321018
-0.341279
0.0096017
-0.357066
0.367917
-0.00557229
-0.212018
0.0135428
0.208969
-0.206712
0.000738378
0.00122582
0.000361368
0.000292897
0.000453363
0.000427125
0.000192626
0.000375741
0.000906909
0.000773158
0.0035518
0.000354986
0.0579692
-0.0609131
-0.00160616
-0.000300217
0.00304916
0.00092376
0.283382
0.364987
0.00201394
-0.30106
0.295667
0.00061376
-0.305796
0.29719
0.00106869
-0.315288
0.294826
0.00175619
-0.328616
0.288048
0.00307983
-0.339416
-0.0139101
-0.0107473
-0.0639357
-0.0635447
-0.106044
-0.051754
-0.0258212
-0.0121442
-0.00824805
-0.0148227
-0.0262519
0.00136253
0.187351
0.217526
0.211231
0.300012
0.179621
0.00170751
-0.0210738
-0.0117203
-0.00687665
-0.0104814
-0.022983
-0.0481385
-0.0989107
-0.232117
-0.246824
-0.438493
-0.331608
-0.104857
-0.10555
0.223062
0.0260005
-0.0273979
-0.0217909
0.110099
0.00450744
-0.087822
-0.0840435
0.0870303
-6.03428e-05
-0.0970802
-0.0929077
0.0761923
-0.000367391
-0.120678
-0.115138
0.0369407
-0.153486
0.0981711
0.0951827
0.0996098
0.0866617
-0.134494
0.00949401
0.0497314
-0.152622
0.0365493
-0.147098
0.172644
-0.398224
-0.0211381
-0.383207
0.262018
0.2705
0.270198
0.265146
0.261066
0.263608
-0.414588
-0.024817
-0.374008
0.266416
0.285314
0.267572
0.281634
-0.0209066
-0.398812
-0.396294
0.173052
0.271171
0.240161
0.237159
0.295311
0.283458
0.226813
0.0687784
0.149883
0.0611879
-0.0326055
0.0741757
0.0116067
-0.0541185
0.0554741
0.00260971
-0.055157
0.0540183
0.000534544
-0.0555842
0.0527804
-5.14303e-06
-0.0533853
0.0539545
-0.000569337
-0.0542959
0.0518839
-0.00346567
-0.0564497
0.0489555
-0.0130013
-0.0747052
0.0284988
-0.0592252
-0.143868
-0.0686517
-0.213442
-0.257182
-0.262446
-0.176731
-0.12989
-0.199729
-0.00841444
0.146063
-0.11035
0.0107277
0.121077
-0.120751
0.00509736
0.12619
-0.129423
-0.00428367
-0.00870204
-0.224489
-0.000717763
-0.364277
0.00042928
-0.361394
0.00193913
0.378712
-0.384408
0.000441781
-0.38222
0.00452568
0.388905
-0.352624
0.000176755
0.354236
0.00191153
-0.355099
0.000219891
0.356947
0.00130814
-0.358298
0.000286954
0.360093
-0.000553631
-0.36215
0.000391678
0.363911
-0.000879058
-0.366407
0.000761085
0.368462
-0.00539188
-0.367177
0.00296707
0.369588
-0.00730193
-0.00841282
-0.460978
-0.33323
0.00796321
0.426876
-0.00295051
-0.450924
-0.312838
0.00659734
0.438355
-0.00105066
-0.443523
-0.304763
0.00267023
0.437724
-0.000793814
-0.437871
-0.29921
0.000477467
0.435872
0.000496462
-0.431493
-0.294969
-0.00156907
0.433331
0.000629993
-0.424187
-0.290159
-0.00490594
0.433564
0.00273556
-0.405059
-0.281297
-0.0052625
0.438532
0.00977675
-0.35088
-0.24806
0.0230246
0.461384
0.0556879
-0.0398571
0.106586
-0.182518
-0.295131
-0.00287155
-0.0826473
0.00136698
0.253094
-0.0208988
0.00354867
-0.213262
0.000954625
0.365191
-0.357018
-0.00223296
-0.359922
0.010068
-0.345935
-0.000599355
0.348611
0.00786634
0.00283517
0.000727642
0.00414499
0.376128
0.00258924
-0.00320774
-0.0933405
-0.000261313
0.100891
-0.000137708
0.000331738
0.000455128
-0.0160694
-0.0185743
-0.0133127
-0.145472
0.0145529
-0.0238917
0.00212489
0.00244701
0.00438917
0.332144
0.274112
0.0014677
-0.00263771
-0.0121859
-0.0146348
0.24245
0.00911701
-0.309263
0.277622
-0.00178127
-0.301184
0.290083
-0.000294422
-0.000615617
0.000865227
0.00358276
0.000945336
0.00227897
0.00493269
0.00223171
0.00102284
0.000890529
0.00398741
0.000147349
0.000808127
0.00212755
-0.306527
0.270382
0.428805
-0.443724
0.439079
-0.445344
-0.00121168
-0.349641
-0.00326763
0.351903
-0.00443683
-0.345121
-0.0109985
0.36111
0.0212788
0.026829
-0.24686
-0.000976385
0.265544
-0.278732
-0.000616082
-0.460715
-0.000903358
0.460617
-0.403942
-0.000159004
-0.410544
0.000126211
0.412255
-0.407451
-4.70378e-05
-0.406735
-4.28671e-05
0.408838
-0.420568
-0.000243297
-0.402545
-0.00114719
0.403904
-0.405533
-0.00350851
0.404261
-0.400881
-0.00744981
-0.00971793
-0.00221257
-0.000932748
-0.00010043
0.000170283
0.000434974
0.00120785
0.00246109
-0.00422317
0.00112072
-0.097815
0.108667
-0.107417
-0.100479
0.00100471
0.000605744
-0.00209445
0.00588499
0.0952882
0.000866655
-0.00113473
-0.00886955
0.0116126
-0.0101718
-0.142478
0.0138426
-0.0302497
0.214058
0.0105501
-0.0102273
-0.0086235
0.00566926
7.86071e-05
0.0730742
0.0740431
-0.00223627
0.0631534
0.097715
-0.00168972
-0.00212702
-0.00219007
-0.000807452
0.00752908
-0.113576
0.291042
0.0169336
-0.434344
-0.00278203
0.44046
-0.386502
-0.00191876
-0.399773
-0.000188827
-0.395579
-0.000161286
-0.398092
0.000878381
0.40027
-0.410623
0.000152939
-0.394454
0.000691609
0.39663
-0.398386
-0.000258224
0.400497
-0.000250884
9.48813e-05
0.000434036
0.00107532
0.00174287
0.00231611
0.000127634
-6.80726e-05
-0.00234981
-0.00224111
-0.00843235
-0.0106285
-0.00222871
-0.00229267
4.2955e-05
5.45615e-05
0.000290092
0.000129579
0.00031675
0.000258956
0.000330825
0.000394588
0.000383034
0.000276823
0.00159577
0.00195633
0.00175522
0.00863335
-0.00131165
0.063017
-0.327726
-0.0833147
3.8433e-05
-0.0309305
0.141563
-0.144251
-0.467193
-0.169867
-0.00259075
0.0411957
1.84481e-05
-0.333131
-0.141509
-0.093706
0.211969
0.0254416
-0.0234737
-0.0410503
0.119179
0.00429994
-0.0816527
-0.101583
0.102025
0.000222328
-0.0902346
-0.107033
0.0946367
0.00057678
-0.116003
-0.121313
0.0253634
-0.00698334
0.00113415
0.00142861
0.400359
-0.362055
0.00258874
0.372505
-0.0134484
0.00985974
-0.470679
0.00210145
-0.292189
0.301288
-0.00223734
-0.288081
-0.501876
0.431235
-0.0273643
0.0442126
0.163261
0.00148383
0.353094
0.26215
0.29509
-0.38986
0.00503491
-0.33023
0.00967253
-0.365622
0.00831289
-0.35031
0.00956097
-0.352055
0.00931776
-0.375715
0.275094
0.269007
-0.0188793
-0.477079
-0.383577
0.16994
-0.118344
0.149434
0.0840745
0.0998473
-0.145439
0.0409556
0.0311115
-0.157282
0.0618959
0.11344
-0.136185
0.214394
-0.114846
0.0179338
-0.126107
0.0218342
-0.137453
-0.107706
0.0209452
-0.00873246
-0.00196294
-0.00133099
-0.000264481
0.000339323
0.000401303
0.0005151
0.00118807
0.00240723
-0.00427481
0.00121309
-0.0639279
0.0754984
0.00055198
0.0152298
0.010928
0.00880677
-0.109837
-0.00804953
0.11743
-0.0966573
-0.0529027
0.119112
-0.129696
-0.177244
-0.20005
0.141101
0.14567
-0.00873481
-0.0122785
-0.039784
0.00463008
0.149345
-0.0271431
-0.0349737
-0.0197616
0.106967
0.107046
-0.0351363
-0.0268925
0.137481
-0.075431
-0.159759
-0.0758271
0.147124
-0.0146568
-0.0155582
-0.0190894
-0.0050248
0.0016614
0.252729
-0.0213344
0.00972998
-0.000420833
0.000297929
0.000493521
0.000289669
-8.71644e-05
-0.000720033
-0.00175931
-0.000207777
-0.00122012
0.000402712
-0.0111132
-0.0040936
0.00637646
-0.0159123
-0.00750593
-0.00743722
-0.20862
0.200479
-0.00574955
-0.00469031
0.00997213
-0.0050711
-0.0044781
0.0340914
0.0704487
0.0361227
0.24883
-0.12481
0.0166482
0.133303
0.16711
-0.0652258
0.00729543
-0.00238604
0.0109463
-0.00267008
0.00124026
-0.0189745
-0.00362198
0.00018487
2.40936e-05
-0.000468977
-0.00109828
-0.000739846
-0.00190376
0.00136017
0.002588
0.000568398
-0.00468791
-0.00074851
0.000147672
0.000254877
0.000174544
0.0011832
0.00737471
0.00228883
0.00380353
0.0021839
0.000845381
5.54727e-05
0.000722823
0.000749583
0.00158362
0.00274894
-0.378751
0.344374
-0.347462
0.349325
-0.350213
0.00187516
-0.386405
0.385135
0.00415576
0.00269584
0.0016708
0.000729538
0.374946
0.00226894
-0.00347536
0.118244
-0.00254307
0.00221776
0.0106105
-0.0174613
0.12522
0.0983314
-0.0434672
0.0172912
-0.000367741
-0.000156733
0.0641732
-0.00221109
-0.00013137
0.045275
-0.136983
0.039714
0.00047836
0.0159054
0.0116358
0.00123812
-0.0121448
0.00492749
0.0107004
-0.0435582
-0.0400012
0.125649
-0.0530257
-0.0965566
-0.0176132
0.118628
-0.00789059
0.0106889
0.0085297
-0.00592928
-0.000314183
0.00234627
0.00852978
-0.0032611
-0.00369936
-0.000922056
-0.00050172
-5.52647e-05
0.00109135
0.000675275
0.000603675
0.000381539
0.389609
-0.391455
0.352249
-0.354182
0.356223
-0.359551
0.00186638
-0.397167
0.393907
0.00138994
0.000521456
0.000153106
-0.00018831
0.00066227
-0.00081649
0.000537096
0.000216675
0.000434262
0.000341192
0.000638823
0.000235953
0.000675708
0.00196563
0.0107317
0.00962765
0.0349853
0.00173392
0.00074762
0.000162987
-0.000678967
-0.00248643
-0.00103797
-0.00104352
0.000127494
-0.000231983
-0.000182532
0.000241596
0.000269911
0.000257121
1.13282e-05
-0.00101637
-0.00265716
-0.00278396
-0.00108976
1.96096e-05
0.000110616
0.00019453
0.000299482
0.000408948
0.000715456
0.000612829
0.000580071
0.00127337
0.00108404
0.000601741
0.0017312
0.00337558
0.00136637
0.00198958
0.0487295
-0.00986604
0.00444084
0.00140021
0.00522853
0.107486
-0.00496476
-0.0155351
0.0774634
0.0234437
-0.333209
-0.116286
-0.250977
0.226176
-0.1544
-0.165343
0.202569
-0.266933
-0.0143816
-0.0195753
-0.223586
0.197068
-0.00306113
-0.0109269
-0.00109946
0.00400991
0.00560856
0.0824372
0.0259015
-0.152803
-0.131905
0.248694
0.0246411
-0.0588239
-0.0171366
0.102415
0.00330323
-0.11714
-0.0759587
0.0770797
-0.000277976
-0.122593
-0.0842547
0.0670122
-0.00108315
0.1068
0.102786
0.00613766
0.129348
-0.125798
0.000515407
-0.112827
-0.000643073
-0.00256622
-0.00043513
-2.86103e-05
0.000181415
0.000197666
0.000170277
0.00013526
4.20802e-05
-0.000959697
-0.00261685
-0.00111995
-0.300687
0.288424
-0.000276309
-0.30129
0.295753
0.444239
-0.450354
0.449051
-0.460068
7.33877e-05
-0.360433
0.00254612
0.355364
-0.000507459
-0.353428
-9.8168e-05
0.352373
0.00131097
0.00170936
-0.260514
0.000504398
0.265166
-0.285759
0.000456664
-0.46827
0.000378305
0.472765
-0.412272
-0.000116877
-0.41741
0.000454297
-0.415333
-0.000665823
-0.411728
-0.00127225
0.410294
-0.425706
8.7751e-05
0.410415
-0.00114963
-0.403962
0.402958
-0.00119641
-0.414969
0.419413
-0.407961
-0.000154146
0.00041462
0.00183943
0.0015349
0.000788107
0.000266157
-0.000195044
-0.000992228
-0.00118009
-0.000267924
0.000536662
0.00162399
0.00172469
0.0039728
-0.305576
0.298426
0.00141721
-0.313544
0.297704
0.453786
-0.475671
0.456726
-0.490519
0.0122067
-0.417379
0.0385824
0.361673
0.00213921
-0.377941
0.0110107
0.360436
-0.000163546
0.00613762
-0.26291
0.00517377
0.281493
-0.298414
0.00154751
-0.475103
0.00261134
0.483019
-0.4136
-0.00162878
0.407319
0.00366686
-0.460747
0.269046
-0.00104646
-0.308563
0.273884
-0.289594
0.0147996
-0.0361704
-0.0180495
-0.0312802
-0.0555872
0.341784
-0.487319
0.105495
-0.0795625
-0.0315279
-0.0127031
-0.00535405
-0.00340984
-0.00462463
-0.00152429
0.0607185
0.628034
0.314755
-0.163415
0.110173
0.056283
0.35849
-0.310958
0.337595
-0.0201005
-0.220251
0.0106805
0.398682
-0.376981
-0.00100743
-0.374583
-9.1748e-05
-0.379429
-0.000236299
-0.389275
0.00169163
0.393795
-0.403087
0.000369602
-0.389967
0.00167956
0.393104
0.00150743
0.0010163
0.410948
0.00227122
0.403854
-0.000319916
-0.00255667
-0.00483617
-0.0164533
0.00261603
0.220282
0.0153098
0.0191188
0.0759414
0.133463
-0.184884
-0.000612314
-0.274609
0.000967575
-0.455745
-0.00211949
0.454172
-0.39866
-0.000725543
-0.406682
-3.02312e-05
-0.40255
-3.27865e-05
-0.402749
0.000349198
0.404844
-0.415781
-2.73315e-05
0.41805
-6.79098e-05
0.000375664
0.414624
-2.7758e-05
-0.000124624
-0.000770287
-0.0020943
0.39393
-0.00417146
0.370261
0.0221436
0.0111833
0.279652
0.0109819
0.00668899
-0.000737622
0.284835
0.000930418
0.0041696
-0.25786
-0.000524957
-0.28231
-0.000118002
-0.464101
-0.000214944
0.466275
-0.408245
6.85487e-06
-0.414219
0.000274864
-0.411749
-0.000256818
-0.410242
-0.000544621
0.41188
-0.425039
-0.000463022
0.421474
-0.000907618
-0.000380973
1.73657e-05
0.000151869
0.000249488
0.000423914
0.00117493
0.00217189
0.00117958
0.00116227
0.000593313
0.00101625
-0.00124776
-0.000288107
0.000479068
0.000417792
0.000520025
0.000465441
0.000333727
0.000521881
0.000944239
0.0028459
0.00218078
-0.304269
-0.00773757
-0.298055
0.331951
-0.0065542
-0.315971
-0.323162
0.338371
0.31637
-0.00643557
-0.301621
-0.344489
0.359538
-0.322329
-0.00800684
-0.288331
0.323811
0.340586
0.335618
0.328259
-0.00733332
-0.317387
-0.294736
0.0022093
0.322301
-0.00596141
-0.338763
-0.308953
0.000777068
0.320737
-0.0019331
-0.349161
-0.316902
-0.325611
-0.333223
-0.00224086
0.330985
0.337986
0.000823254
0.314298
-0.00219
-0.309221
-0.355267
0.359764
0.000727054
-0.283095
-0.425248
-0.00561315
0.292814
0.00171687
-0.274722
-0.4065
-0.00645706
0.307449
0.362129
-0.260069
0.0209609
-0.252807
-0.0091206
-0.256238
0.0206633
-0.252042
-0.00907665
-0.257234
0.0216997
-0.256803
0.357759
0.311208
-0.00990663
0.0137907
-0.000980095
-0.191501
-0.229382
-0.217221
-0.24083
-0.22931
-0.231133
-0.237422
-0.195099
-0.301879
-0.238581
-0.218056
-0.228714
-0.154504
-0.0667242
-0.0828269
0.137188
-0.153438
0.361173
0.365177
0.362368
0.3639
0.377182
0.3545
-0.148648
0.119835
-0.0664526
-0.15465
-0.0832436
0.149472
-0.015396
-0.00307551
-0.00307647
-0.00129362
-0.000390793
0.000340666
-4.65627e-05
0.338535
0.000432989
-0.331941
-0.33992
-0.314437
-0.362348
0.000199916
0.314737
0.361036
2.48557e-05
-0.287732
-0.433865
-0.00186843
0.290885
0.435033
0.00133727
0.0563108
-0.0556993
-0.000487532
0.0565662
-0.0565184
0.000103877
0.0578183
-0.0566094
0.00228315
0.064731
-0.0516407
0.0125995
0.0917288
0.0320243
0.0194226
0.00523784
0.00385105
-0.00022158
0.000854531
-0.0010144
0.00072818
-0.00162122
-0.000261552
-0.00246288
-0.0571876
0.434359
0.00282083
0.0534025
-0.0741036
-0.0115639
-0.0197761
-0.00825076
-0.0486167
0.0333778
0.00998254
-0.352245
0.0217739
-0.243179
-0.010095
0.0142438
0.000932778
-0.154096
-0.262287
-0.255284
-0.213635
-0.0674693
-0.144164
-0.0581473
-0.114926
-0.326938
0.0557501
0.46132
0.352266
0.379485
-0.148274
-0.315795
-0.19062
-0.000186689
0.0327735
0.0216797
0.0131013
0.00595795
0.0031442
0.000156101
-0.291333
-0.441774
0.437726
0.292178
-0.000311782
0.00127056
0.00494607
0.0054999
0.0190881
0.00788412
0.00264219
-0.000994925
-0.000402852
0.362274
0.00206787
-0.318828
-0.369214
-0.293517
-0.452861
0.00134909
0.295747
0.441904
0.00213783
0.00155657
0.00158079
0.00108809
0.00168852
0.00293247
-0.404534
0.362417
-0.364959
-0.00542186
0.0025756
0.00130745
-0.00229043
0.000605394
0.000160735
0.398651
0.000604103
0.000382223
0.402585
0.00270945
0.00023229
0.00116432
0.00185164
-0.000905237
-3.07429e-06
0.000489464
9.86647e-05
0.000313921
0.000104683
6.52619e-05
0.000371756
0.00131598
0.000570993
0.000174495
9.86728e-05
-0.000688016
-0.000223354
-0.00023385
-0.000776932
-4.21568e-05
0.000612945
0.00089789
0.000166379
0.000144088
0.000282333
0.000363866
-0.00309917
-0.00321082
-0.0153833
-0.00569441
0.341178
-0.00182308
0.000809102
0.000721784
-0.000903207
-0.00101054
-0.000159592
-0.00583288
-0.00525679
-0.00358345
-2.45333e-05
-0.323236
0.292847
0.00519823
-0.324954
-0.0121276
-0.0122385
-0.0629178
-0.080454
-0.3021
-0.305289
-0.490797
0.123083
0.0464425
0.252738
-0.089134
0.131924
-0.0147977
-0.150579
0.135572
-0.00337636
0.104976
-0.00344651
0.127511
-0.140696
-0.0118582
-0.00373171
-0.00459718
0.00200682
-0.0168865
0.112243
-0.00557231
0.00427757
0.00415621
0.00263538
0.00156773
0.000696349
0.000598578
0.00539017
0.00460636
0.0118671
0.0104589
0.030355
0.00623181
0.00270154
0.000814992
0.286652
-0.290609
0.00111678
-0.472913
0.00127302
0.480344
-0.415263
-0.000578155
-0.418074
0.000451683
0.413237
-0.000265374
2.31969e-05
0.000307671
0.00044601
0.00111188
0.00284553
0.0014255
0.000849884
0.00046845
0.000183716
9.70865e-05
0.000141106
0.000159649
0.000146692
0.39301
1.67407e-05
0.399292
3.53734e-05
0.381199
0.3654
0.00147901
0.363557
0.219137
0.0057744
0.00125289
-0.000148785
8.7733e-05
-0.000752731
0.401931
0.00153243
-0.00129512
0.262328
-5.38595e-05
0.000668365
-0.000701155
0.284355
0.000740545
0.00277614
-0.261973
0.00234359
0.271953
-0.000340566
0.00173798
0.00116406
0.000808953
-4.69122e-05
0.406569
0.000164714
0.406013
3.75279e-05
0.000645449
0.410903
0.000298695
0.416869
-8.27079e-05
0.00180317
0.415178
-0.00206404
0.289113
-0.000735343
0.0051376
-0.269312
0.00898808
0.288176
-0.0100516
-3.75326e-05
-0.0101643
-0.0354561
-0.083514
0.00290384
-0.0121963
-0.00527797
0.0039814
0.00362346
0.417449
-0.000568309
-0.00130718
-0.0013211
-0.000331973
-0.00482037
-0.000238197
0.000659303
0.000510803
0.420638
0.412881
-0.000316867
-6.36441e-05
-0.000851792
-0.00165527
-0.00185317
-0.00795289
-0.00296226
-0.00305696
-0.00161477
-0.000616287
0.421005
-0.00119278
-0.000195614
0.000375953
0.000104718
-0.00113832
-0.0048758
-0.0152946
-0.00367737
0.00054514
0.000907995
0.00233699
-0.00202327
0.00251968
0.00413981
-0.00725262
0.0322258
0.0671104
-0.0486014
0.34499
9.09887e-05
-0.02065
-0.03149
-0.0165248
-0.00462199
0.00138917
0.0072102
0.0182939
0.0317892
0.0341493
0.00090869
0.0162268
0.01608
-0.301934
-0.153572
-0.316191
-0.155201
-0.000117002
0.0202563
0.00462318
0.0018232
0.297942
0.354077
-0.00112894
0.00284693
0.00118348
0.00234349
0.00128935
0.00276911
-0.00352082
-0.0188996
0.141012
0.323859
0.0135806
-0.000368419
0.000919028
0.000928233
0.000491553
0.000567665
0.000254141
0.00025752
0.000279393
-0.000255453
0.000457116
0.000438457
0.00122781
-0.000441627
-0.00120737
-0.346527
0.00297069
-0.337497
0.327298
0.00715258
-0.343146
-0.354707
0.33631
0.314808
0.00495027
-0.323153
-0.377799
0.359915
-0.0012389
0.300914
0.444765
0.00479633
-0.000903438
-0.00205901
0.00283223
0.00372744
0.00646279
0.0766005
0.119241
0.185515
0.438377
0.0299539
0.226995
0.336097
-0.0163096
-0.00508131
-0.00910268
-0.00129015
-0.00227382
-0.000890762
0.315977
0.338954
0.331262
0.321644
0.00313287
-0.36162
-0.329228
-0.00141539
0.320289
0.00751503
-0.367769
-0.338158
-0.00279845
0.312863
0.333452
0.296791
-0.00215748
-0.00238958
-0.00270295
-0.000774337
0.000261756
0.00163318
0.000320032
0.0002677
-0.000786151
-0.0003344
-0.00309261
0.0293193
-0.00322416
-0.00202535
-0.00487725
-0.00388647
-0.00240817
-0.00410097
-0.0017628
0.0835284
-0.00201703
0.00184022
0.000259755
-1.65359e-06
0.0049639
0.00434499
-0.0316492
0.180241
-0.0792444
-0.305882
-0.385503
0.0291299
-0.176882
0.0735608
0.0233143
-0.109034
-0.117489
-0.0127543
-0.0192588
0.12782
0.117222
-0.0110531
-0.114102
-0.00200285
0.114505
-0.000568692
0.00147187
-0.000109021
0.00132263
0.0033159
0.00345072
0.0023591
0.000680383
0.000539959
-0.00129049
-0.00111772
-0.000167123
-0.000711088
-4.64979e-05
-0.000151995
0.00117594
0.0021426
0.0020322
-0.00235976
0.00337646
0.0065959
-0.0117469
0.37728
-0.0246143
0.0183062
-0.419816
0.00539116
0.00461614
0.0352181
0.00408744
0.00854595
0.0261914
-0.00193668
-0.000711845
-0.00254376
0.00682714
0.0735165
-0.00476773
-0.00276892
-0.00143263
0.00186058
-0.187431
0.21719
-0.00657519
0.00132037
-0.00896425
-0.0223682
-0.0252846
-0.0047006
-0.00223569
0.0896007
-0.00231736
-0.00280376
-0.00528781
-0.000887397
-0.00310234
0.0790066
-0.00516267
-0.00292641
0.00684268
0.00524458
-0.001109
-0.00129549
-0.000846651
-0.00216463
0.00198264
0.00557497
0.00466582
0.00383668
-0.00867968
0.0178253
0.0179332
0.0206012
0.0268875
0.379229
0.0507308
0.00713094
-0.0105855
-0.00260977
0.00136936
0.0050027
0.0118746
0.00115241
0.353693
0.296651
0.000723315
4.76165e-05
0.000323156
-9.27613e-05
0.297298
0.354404
0.000564447
-0.355803
-0.322785
0.321019
-9.03104e-05
0.331255
-0.000237267
0.00825153
0.020504
0.00152845
0.00146499
0.0053529
-0.000208298
0.00187379
-0.00425551
-0.0163005
-0.00588885
0.304691
0.325274
0.312742
-0.00652682
-0.00260312
-0.000972765
-0.000575035
-0.00101877
0.354474
0.298916
-0.000629457
0.00051457
0.000250638
-0.000720469
-0.00137178
0.299843
0.350206
-0.00253797
0.000255188
-0.00060804
-0.000991844
-0.00221009
-0.00997727
-0.0510275
-0.328049
-0.118277
-0.0228335
-0.00257781
0.000306915
-0.000371329
0.000652673
0.000460829
0.00192377
-0.00594697
-0.0142617
0.0116834
-0.0172071
-0.0306945
-0.0200477
0.0140143
0.228052
0.328167
-0.0166746
0.00437949
0.21815
0.329948
0.00354441
0.207717
0.34316
0.16368
0.00117445
-0.00251356
0.345632
-0.00271535
0.02085
0.120666
0.020617
0.0444369
0.0470861
0.0448311
0.0594087
0.0374355
-0.00108265
-0.00498478
0.0455424
-0.0215336
-0.0100288
-0.00780075
0.0486926
0.00467147
0.0337324
0.0295856
0.207221
0.174912
0.194174
0.185396
0.189938
0.0409799
0.00663872
-0.000768196
-0.00688643
-0.0832866
-0.280455
-0.26741
-0.000463442
0.0104338
0.169909
0.000115244
0.409812
0.00319546
0.000632448
0.00020598
-0.000543983
-0.0115754
0.000983117
0.28326
0.407011
0.401542
-0.000205166
-0.0107141
-0.412886
0.0011433
0.0015144
0.00120387
-0.0406995
0.43912
0.0116966
0.00628172
0.00216469
0.00496838
0.0869532
0.00283497
0.213334
-0.251179
-0.0313786
-0.44669
-0.000177972
-0.0197285
0.0985522
0.000661821
-0.453221
0.378775
0.00482503
0.213425
0.0151103
0.088002
0.198732
0.0329663
0.0351579
0.00139609
0.00125957
-0.00159214
0.279879
0.0122991
-0.0170025
-0.0241505
-0.00783877
0.00196279
0.000404808
0.000162944
0.000307239
0.000364914
9.65483e-05
-0.00096332
-0.00149034
-0.0134159
-0.00686312
0.242536
0.0196842
-0.404393
0.440943
0.0268262
0.316704
0.00242691
-0.291272
0.301888
0.0301991
-0.262481
0.283212
0.00628954
-0.270476
0.275295
0.00407237
-0.269854
0.27218
0.00298843
-0.268761
0.269507
-0.000138065
-0.269555
0.264429
-0.00634541
-0.274071
0.251297
-0.0306777
-0.286913
0.186909
-0.136176
-0.362348
-0.110302
-0.339607
0.0212016
0.22195
-0.223658
0.0127409
0.232041
-0.229592
0.00477118
0.233086
-0.23964
-0.00269931
0.232363
-0.238599
-0.0197221
0.224365
0.235537
0.363127
0.0918392
-0.262191
0.00342886
0.385527
-0.000706239
-0.392838
-0.00173827
0.376687
-0.00229659
-0.380364
-5.88326e-05
0.378156
0.000398025
-0.372475
0.001203
0.383365
-0.0113086
-0.402869
-0.0174927
0.314297
-0.0557244
0.0722303
0.16375
-0.300038
0.30581
-0.364283
0.343655
-0.356005
0.351188
-0.35313
0.355497
-0.353469
0.360061
-0.355432
0.362547
-0.361427
0.368124
-0.363683
0.382479
-0.327238
0.317751
-0.157959
0.31279
0.392533
0.195542
0.289627