/*--------------------------------*- C++ -*----------------------------------*\
| =========                 |                                                 |
| \\      /  F ield         | OpenFOAM: The Open Source CFD Toolbox           |
|  \\    /   O peration     | Version:  2306                                  |
|   \\  /    A nd           | Website:  www.openfoam.com                      |
|    \\/     M anipulation  |                                                 |
\*---------------------------------------------------------------------------*/
FoamFile
{
    version     2.0;
    format      ascii;
    arch        "LSB;label=32;scalar=64";
    class       volScalarField;
    location    "0.7";
    object      gradTz;
}
// * * * * * * * * * * * * * * * * * * * * * * * * * * * * * * * * * * * * * //

dimensions      [0 -1 0 1 0 0 0];

internalField   nonuniform List<scalar> 
5322
(
-0.864655
-0.87669
-0.895094
-0.970191
-0.950999
-0.937407
-0.926885
-0.919337
-0.915306
-0.917897
-0.904584
-0.906121
-0.681625
-0.939895
-1.02788
-0.820907
-0.970304
-0.72678
-1.02394
-1.03479
-1.04379
-1.04165
-1.04581
-1.05482
-1.0595
-1.05797
-1.06403
-1.07407
-1.08098
-1.0813
-1.08826
-1.09645
-1.09644
-1.08491
-1.03808
-0.85613
-0.976354
-0.992865
-1.02475
-0.723665
-0.952749
-0.983268
-0.710608
-0.984653
-0.975006
-0.722468
-0.998345
-0.94247
-0.712999
-0.976559
-1.09524
-0.782859
-1.06731
-0.99875
-0.933444
-0.949275
-1.12933
-0.934333
-0.942708
-0.95006
-1.14297
-0.946921
-0.943058
-0.926645
-1.14223
-0.978888
-0.938644
-0.880163
-1.11547
-1.0396
-0.777741
-1.20807
-1.15049
-1.13409
-1.14606
-1.14049
-1.13989
-1.13594
-1.15095
-1.0903
-1.03855
-0.800865
-0.830159
-1.11857
-0.760361
-1.01284
-1.37352
-0.842468
-0.862377
-0.77317
-0.976265
-0.861754
-0.90916
-0.902276
-1.09894
-0.957311
-0.951171
-0.970991
-1.39779
-0.819783
-0.826856
-0.785689
-0.978369
-1.08608
-1.18172
-0.923222
-0.978902
-0.974873
-0.959852
-0.950111
-0.940559
-0.931795
-0.923964
-0.922196
-1.05834
-1.04704
-0.732876
-0.794068
-1.05828
-0.875113
-0.775548
-0.943107
-0.929891
-1.30997
-0.975878
-1.2827
-0.921049
-0.96175
-1.26067
-0.917167
-0.941291
-1.27206
-0.931377
-0.923767
-1.27788
-0.944545
-0.929493
-1.31206
-0.976616
-1.28282
-0.923357
-0.778192
-0.87521
-0.782958
-0.73424
-1.05841
-0.79411
-0.788539
-0.724504
-0.729284
-1.05637
-0.789615
-0.786567
-0.724924
-0.731021
-1.05609
-0.791191
-0.782583
-0.777916
-1.02773
-0.819703
-0.971579
-1.13113
-1.10728
-0.701819
-1.02415
-0.726852
-0.984065
-0.673467
-0.910691
-0.941038
-0.874159
-0.905729
-1.05081
-0.864733
-1.06619
-1.05872
-1.02412
-0.855134
-1.02235
-1.04875
-1.0509
-1.04407
-0.872285
-1.04527
-1.05197
-1.0533
-1.05354
-0.881033
-1.05451
-1.06023
-1.06114
-1.06274
-0.88964
-1.06411
-1.07091
-1.07232
-1.07241
-0.899488
-1.07461
-1.08375
-1.08619
-1.08259
-0.910251
-1.08575
-1.09645
-1.10017
-1.09447
-0.918451
-1.099
-1.09092
-1.09448
-0.968834
-1.39852
-0.820062
-0.81718
-0.788386
-1.10851
-1.1055
-0.909232
-0.902561
-1.09562
-0.964931
-0.93968
-0.977425
-1.39378
-0.824496
-0.816981
-0.789862
-0.965281
-1.09223
-0.950794
-0.961315
-0.973178
-0.959701
-0.950549
-0.940955
-0.932036
-0.924065
-0.92217
-1.0583
-1.04731
-0.729659
-0.727409
-0.726846
-0.729611
-1.05596
-0.786507
-0.790918
-0.795571
-0.941055
-1.32238
-0.786727
-1.056
-0.79068
-1.31496
-0.958896
-1.25646
-0.916524
-0.795764
-0.940974
-1.25674
-0.671028
-0.901645
-0.865266
-0.864265
-0.906011
-1.05795
-1.0243
-1.05027
-1.04409
-1.05301
-1.05343
-1.06108
-1.06267
-1.07248
-1.07234
-1.08675
-1.08226
-1.10143
-1.09334
-1.10138
-0.956447
-1.39799
-0.974746
-0.950833
-1.08839
-1.10164
-0.918936
-1.09611
-1.0871
-0.910679
-1.08423
-1.07515
-0.89979
-1.07157
-1.06421
-0.889811
-1.0609
-1.05433
-0.881101
-1.05288
-1.04467
-0.872273
-1.05021
-1.02126
-0.854902
-1.06764
-0.875205
-1.06645
-1.0224
-0.854908
-1.05903
-0.90579
-1.05058
-0.872266
-0.679205
-0.943073
-0.821085
-1.07103
-1.02634
-1.04828
-1.05014
-1.05242
-1.05732
-1.0619
-1.06558
-1.07395
-1.07474
-1.09007
-1.08106
-1.10879
-1.08311
-1.10433
-0.961734
-1.37789
-1.01569
-0.916454
-1.17278
-1.18319
-0.88939
-1.1784
-1.16601
-0.881825
-1.16331
-1.15117
-0.870294
-1.1475
-1.13881
-0.860355
-1.13591
-1.12968
-0.852464
-1.12755
-1.12179
-0.845236
-1.12537
-1.10766
-0.829837
-1.13096
-0.971399
-1.02739
-0.910377
-0.961672
-0.839154
-0.987269
-0.671564
-0.766482
-0.872235
-0.800775
-1.09597
-1.069
-1.0299
-1.02299
-0.852779
-1.05926
-1.07467
-0.833468
-1.05504
-0.927073
-0.88216
-0.867074
-1.27678
-1.02994
-0.976471
-1.31095
-0.940644
-0.876984
-0.895194
-0.870014
-1.06758
-1.02124
-0.865698
-1.05095
-1.04466
-1.05344
-1.05436
-0.871679
-1.06177
-1.06364
-1.0732
-1.07325
-0.886687
-1.08715
-1.08296
-1.10058
-1.09521
-0.903503
-0.910171
-0.900268
-0.90039
-0.891597
-0.888357
-1.09072
-1.08309
-0.908995
-1.0925
-1.08856
-1.10657
-1.08946
-0.915483
-1.11034
-1.07329
-1.19585
-0.923567
-1.36841
-0.834201
-0.797748
-0.808436
-1.06799
-0.855839
-0.762641
-1.11132
-0.741596
-1.06337
-1.09483
-0.731189
-1.07221
-1.07577
-0.72121
-1.06866
-1.06511
-0.713717
-1.05533
-1.04928
-0.708292
-1.05109
-1.04197
-0.704999
-1.04259
-1.02928
-0.701379
-1.02936
-0.788283
-0.759999
-0.94745
-0.82775
-0.923259
-0.959638
-1.07007
-1.08403
-1.07783
-1.08799
-1.05509
-1.05727
-0.879248
-1.05522
-1.05459
-1.04872
-0.871079
-1.04555
-0.868437
-0.821762
-0.82017
-0.729078
-0.850285
-0.825132
-0.791536
-0.922885
-0.916347
-0.904067
-0.911408
-0.707454
-1.15295
-0.638627
-0.857694
-0.911205
-0.891774
-0.899297
-0.927869
-0.91402
-0.91792
-0.936094
-0.90498
-0.964521
-0.849283
-0.957748
-0.96521
-1.09068
-1.0943
-1.10401
-1.10245
-1.07733
-1.07532
-0.897976
-1.07257
-1.07531
-1.066
-0.887825
-1.06544
-0.880642
-0.835256
-0.827533
-0.73507
-0.858276
-0.848771
-0.812557
-0.851884
-0.823652
-0.790797
-0.948616
-0.842981
-0.730483
-0.91904
-0.921061
-0.907945
-0.906728
-0.855766
-0.830538
-0.825586
-0.725011
-0.905042
-0.893305
-1.02373
-0.864376
-1.0511
-1.04927
-1.04552
-0.872423
-1.0438
-0.864939
-1.05348
-1.05243
-1.05462
-0.881339
-1.0537
-0.869861
-1.06116
-1.06124
-1.06369
-0.89017
-1.06363
-0.876818
-1.072
-1.07302
-1.07319
-0.900287
-1.07443
-0.884732
-1.08459
-1.08775
-1.08223
-0.911168
-1.08651
-0.892994
-1.09517
-1.10268
-1.09276
-0.918646
-1.10064
-0.899222
-1.08808
-1.09851
-0.967291
-0.949129
-0.967462
-0.793334
-0.820279
-0.788443
-0.744876
-1.0645
-0.7551
-1.01689
-0.83274
-0.79789
-1.0389
-1.06397
-0.89741
-0.947111
-0.947512
-0.948734
-0.961584
-0.942918
-0.933557
-0.955931
-0.924321
-0.945408
-0.924997
-0.918346
-0.912411
-0.909454
-0.91239
-0.89857
-0.898327
-0.683206
-0.933303
-0.826063
-0.859551
-0.863584
-0.879757
-0.909044
-1.05326
-0.793926
-0.978218
-0.965733
-0.976111
-0.990708
-0.776169
-0.975077
-0.978361
-0.973748
-1.05426
-0.712594
-0.717293
-0.716027
-0.714871
-0.712576
-0.710039
-1.05668
-0.714881
-0.714112
-0.714362
-1.05674
-0.716073
-1.06035
-1.06266
-1.06042
-0.940682
-0.938983
-0.87241
-0.863221
-0.865594
-0.87232
-0.880417
-0.889394
-0.843624
-0.749879
-0.872632
-0.86281
-0.825059
-0.98156
-0.982446
-1.12616
-1.09779
-1.16387
-0.895721
-0.962635
-0.818115
-1.00246
-0.88246
-0.937164
-0.956381
-0.925769
-0.934412
-0.947541
-0.994451
-0.981978
-0.968235
-0.913619
-0.873363
-0.883667
-0.922359
-0.730926
-0.802571
-1.09051
-0.98738
-1.02929
-1.05582
-0.697571
-0.871828
-0.91921
-1.08736
-0.722608
-0.907816
-0.924219
-1.0926
-0.725528
-0.896414
-0.935141
-1.08866
-0.739448
-0.885867
-0.990367
-1.35425
-1.01513
-0.990719
-1.24634
-1.2091
-0.983005
-0.742137
-1.06737
-0.999516
-0.93298
-0.947302
-0.944356
-0.713325
-0.974844
-1.09573
-0.782635
-1.03924
-0.801317
-0.830894
-1.11895
-1.05532
-0.851066
-1.11141
-1.07276
-0.862716
-1.09069
-1.07296
-0.854977
-1.07479
-1.06492
-0.847536
-1.06191
-1.05606
-0.839367
-1.05248
-1.04795
-0.834875
-1.04357
-1.04237
-0.816548
-1.03523
-1.0235
-0.793522
-0.984494
-0.834856
-0.960445
-0.909288
-0.971067
-1.13133
-1.10701
-0.829837
-1.07305
-0.819387
-1.02783
-0.942682
-0.679336
-0.871161
-0.902253
-1.05083
-0.860885
-0.904098
-0.906289
-0.918594
-0.915248
-0.917575
-0.921101
-0.927447
-0.865703
-0.840063
-0.806236
-0.974793
-0.980604
-0.867553
-0.85678
-0.913471
-0.928917
-1.06215
-1.06338
-0.87336
-1.05407
-1.06056
-0.890352
-1.06384
-1.07133
-0.900357
-1.07441
-1.08408
-0.910963
-1.08543
-1.09597
-0.918367
-1.09689
-0.963476
-0.972493
-0.9648
-0.970228
-0.952738
-0.936115
-0.926714
-0.919161
-0.913376
-0.910471
-0.913498
-0.901408
-0.901253
-0.679093
-0.902253
-0.860466
-0.905102
-0.905188
-0.918227
-0.915046
-0.918346
-0.924465
-0.932177
-0.941526
-0.956132
-1.01081
-1.00501
-0.739206
-1.32509
-0.997324
-0.957189
-0.925419
-1.09256
-0.726754
-0.728536
-0.797039
-1.13839
-0.759859
-0.771327
-0.786263
-1.14487
-0.763328
-0.774778
-0.779566
-1.14025
-0.779833
-0.79323
-0.862076
-1.43926
-1.0287
-1.0043
-1.00906
-1.00001
-0.844256
-0.811927
-0.865269
-1.43394
-0.856034
-0.859622
-1.14222
-0.948475
-0.942531
-0.925727
-0.989292
-0.710118
-0.979311
-0.980041
-0.723982
-0.994526
-0.936833
-0.942138
-0.946734
-1.14154
-1.13772
-1.14784
-1.13228
-0.943082
-0.892488
-0.971522
-1.144
-0.960134
-0.730769
-1.01975
-0.894891
-0.729597
-1.2193
-0.671883
-0.924766
-0.808201
-0.989706
-0.99024
-0.824476
-1.00673
-0.991566
-0.837556
-0.988524
-0.989387
-0.811338
-0.984019
-0.971643
-0.822485
-0.966092
-0.970885
-0.793972
-0.965646
-0.956124
-0.807491
-0.948264
-0.959751
-0.781827
-0.932807
-0.937903
-0.76182
-0.872747
-0.636286
-1.149
-0.826787
-0.708206
-1.31159
-0.930185
-0.976039
-1.28127
-0.922403
-0.960014
-1.25921
-0.91592
-0.942588
-1.27189
-0.933715
-0.921253
-1.2771
-0.685198
-0.878757
-1.05376
-0.867309
-0.875663
-1.06522
-0.854943
-1.02231
-1.02281
-0.864342
-1.04864
-0.845155
-1.04881
-1.12143
-0.730714
-1.12763
-0.707419
-1.12869
-0.734964
-1.13424
-0.712698
-1.13901
-0.741452
-1.14498
-0.71971
-1.15058
-0.749437
-1.15687
-0.728164
-1.16569
-0.75914
-1.17081
-0.737953
-1.18378
-0.770282
-1.17487
-0.745641
-0.878466
-1.12193
-1.09575
-0.918828
-1.13279
-0.881504
-1.12584
-1.09276
-0.903053
-1.11895
-0.871933
-1.11123
-1.08151
-0.891387
-1.10507
-0.862237
-1.10011
-1.07044
-0.881546
-1.09514
-0.853897
-1.08855
-1.06121
-0.874141
-1.08512
-0.847242
-1.08107
-1.05463
-0.869068
-1.0806
-0.841589
-1.07427
-1.05314
-0.869634
-1.06232
-0.827389
-1.10148
-1.05891
-0.882243
-0.797332
-0.765755
-0.672383
-0.910658
-0.961697
-0.835003
-0.984799
-0.791346
-0.823007
-0.832917
-0.857717
-0.861476
-0.899768
-1.05122
-0.865039
-0.903825
-0.872435
-1.07113
-0.830236
-1.1068
-0.729228
-1.1251
-0.704315
-0.919772
-0.906574
-0.895188
-1.05974
-0.93909
-1.31397
-0.790896
-1.056
-0.786952
-0.794559
-0.977094
-0.9725
-0.96493
-0.973151
-0.979095
-1.32196
-0.94009
-0.875501
-0.864287
-0.865483
-0.867971
-1.0523
-1.05371
-0.869302
-0.912648
-0.901631
-0.895993
-1.0585
-0.855353
-1.02404
-1.04929
-0.872587
-1.04458
-1.05255
-0.881535
-0.954749
-0.867754
-0.868585
-0.874481
-0.88257
-0.880261
-0.882404
-0.874328
-0.867307
-0.866766
-0.865684
-0.863381
-0.864451
-1.02448
-1.0494
-1.12471
-1.12138
-1.12699
-1.12851
-0.7077
-1.04899
-0.730229
-1.04378
-0.704538
-1.04368
-0.729032
-1.03545
-0.815462
-0.783332
-0.957072
-0.841696
-0.950775
-1.07933
-0.86901
-1.05408
-0.878061
-1.05484
-1.05617
-0.87371
-1.05928
-0.888609
-1.06352
-1.06397
-0.879648
-1.06892
-0.897054
-1.07523
-1.0753
-0.887695
-1.082
-0.877031
-1.08902
-1.09425
-0.886342
-1.10592
-1.08728
-0.885814
-0.982784
-0.976903
-0.960555
-0.950278
-0.940625
-0.931869
-0.924034
-0.922291
-1.05835
-1.04679
-0.730204
-0.724281
-0.728319
-0.789299
-1.32109
-0.940272
-0.94089
-1.30963
-0.788849
-0.793322
-0.978963
-0.976264
-1.03042
-0.975579
-1.31471
-0.938866
-0.872342
-1.07221
-0.83057
-0.919569
-0.902038
-1.06057
-1.054
-0.714184
-0.711833
-1.05673
-0.709455
-0.723854
-1.05625
-0.902502
-0.865426
-0.820292
-0.866934
-1.27516
-1.10338
-0.882601
-1.05735
-0.852594
-1.03106
-1.02081
-0.867854
-1.04879
-0.872096
-1.04354
-0.86688
-1.0515
-0.880328
-1.05422
-1.05335
-0.870516
-1.06031
-0.859044
-1.06534
-1.07043
-0.867466
-1.07618
-0.889642
-0.880384
-0.872402
-0.865762
-0.863412
-0.901964
-1.06052
-1.05382
-0.88224
-0.925031
-0.902589
-0.919491
-0.901742
-0.882193
-0.92482
-0.863892
-0.865553
-0.866896
-0.866399
-0.873923
-0.87134
-0.918376
-0.924443
-0.932259
-0.93503
-0.94382
-0.875155
-0.856805
-0.871653
-0.888935
-0.727389
-1.01198
-0.747047
-1.35817
-0.978792
-0.956344
-0.954024
-1.11008
-0.985532
-1.0314
-0.980597
-1.34861
-0.964674
-0.955593
-0.923935
-1.08792
-0.725046
-0.738395
-0.804604
-1.1321
-0.756634
-0.7831
-0.796598
-1.13837
-0.760049
-0.784273
-0.79224
-1.13377
-0.778121
-0.797988
-1.1484
-0.979036
-0.909283
-0.902549
-1.10095
-1.17392
-0.889314
-1.17945
-0.7398
-0.886388
-1.14171
-0.900036
-1.0839
-1.11512
-0.912384
-1.07553
-1.16002
-1.10117
-1.02167
-0.816373
-0.93793
-0.873618
-1.09006
-1.152
-1.13403
-1.09278
-0.915827
-1.08324
-0.91336
-1.08878
-0.915558
-1.08341
-0.914096
-1.08978
-0.918101
-1.08385
-1.15452
-1.12832
-0.94309
-0.838827
-0.998632
-1.14532
-0.840239
-1.01075
-1.02817
-0.988676
-0.858876
-0.855851
-0.861115
-1.42537
-0.862366
-0.950718
-1.36741
-1.03229
-0.992163
-0.839736
-0.851216
-1.14599
-0.789835
-0.78918
-1.14223
-0.964979
-0.979327
-0.975011
-0.96001
-0.95027
-0.940682
-0.931888
-0.924018
-0.922232
-1.05836
-1.04706
-0.709436
-0.712366
-0.96893
-0.9649
-0.975732
-1.25617
-0.959224
-0.777787
-0.782777
-0.87489
-0.79416
-0.775876
-0.929973
-1.31205
-0.97612
-1.27501
-0.921989
-1.28058
-1.03047
-0.991577
-0.976496
-1.31003
-0.788942
-0.789454
-1.05636
-0.72656
-0.726097
-0.789613
-0.788844
-0.792753
-0.935008
-1.28863
-0.935527
-1.32054
-0.939703
-0.94064
-0.867004
-0.727285
-0.824659
-0.830109
-0.858066
-0.906682
-0.907383
-0.920965
-0.917885
-0.921345
-0.927635
-0.935526
-0.944992
-0.941986
-0.958545
-0.957584
-1.00149
-0.743864
-0.813458
-0.818041
-1.39861
-0.950798
-0.966356
-0.996537
-1.3215
-0.736644
-0.816394
-0.818848
-0.749117
-0.826824
-0.841877
-1.37368
-0.980964
-1.01282
-0.773596
-0.862456
-0.94468
-0.88136
-0.884084
-0.959385
-1.01255
-1.01013
-0.965065
-0.96384
-0.981055
-0.962879
-0.945941
-0.933829
-0.925285
-0.910589
-0.902627
-0.902375
-0.89345
-0.905617
-0.850575
-0.853224
-0.858685
-0.865725
-0.873357
-0.879839
-0.975538
-0.960336
-0.961041
-0.946081
-0.93201
-0.92024
-0.91972
-0.910182
-0.923974
-0.918029
-1.05006
-1.12478
-1.12116
-1.12716
-1.1284
-0.85168
-1.05316
-1.04834
-0.844732
-0.959158
-0.863241
-0.864384
-1.02392
-0.939194
-1.31417
-0.916539
-0.872538
-0.901748
-0.919575
-1.05824
-0.733027
-0.725189
-0.979903
-0.971833
-0.979126
-0.968539
-0.708785
-1.0568
-0.968927
-0.976388
-0.795126
-0.991632
-0.969325
-0.964237
-0.975436
-0.978208
-1.03062
-0.976239
-0.978582
-0.980166
-0.99229
-0.732027
-0.794434
-0.874801
-1.05817
-0.783218
-0.777407
-0.919661
-0.902817
-1.06068
-1.05355
-0.882247
-0.902815
-0.865602
-0.820324
-0.729225
-0.821861
-0.730498
-0.865536
-0.865071
-0.872163
-0.869914
-1.05634
-1.06124
-1.13502
-1.13741
-1.14662
-1.14794
-0.8687
-1.07169
-1.06559
-0.859295
-0.976764
-0.827479
-0.734782
-0.834785
-0.741045
-0.880128
-0.876832
-0.88204
-0.878313
-0.891023
-0.886575
-0.900087
-0.898115
-0.85115
-0.759023
-0.895825
-0.997613
-0.98723
-0.977253
-0.968544
-0.959209
-0.943996
-0.926336
-0.927363
-0.953735
-0.936189
-0.935663
-0.962525
-0.945039
-0.93583
-0.92754
-0.94499
-0.94419
-0.92629
-0.927157
-0.930146
-0.938806
-0.947814
-0.944632
-0.97217
-0.954316
-0.954147
-0.982046
-0.963569
-0.963359
-0.989077
-1.00449
-0.906939
-1.10153
-0.733548
-1.1539
-0.976998
-0.960501
-1.12901
-0.779304
-1.1442
-1.0616
-1.03465
-0.976837
-1.33906
-0.966755
-0.954732
-0.89624
-1.06671
-1.07692
-0.844543
-0.955339
-1.06565
-1.07609
-0.986595
-0.965902
-1.33124
-0.981071
-1.03763
-1.04358
-1.0462
-1.03816
-0.976944
-1.06666
-0.94234
-0.935275
-1.08882
-0.739984
-0.724246
-0.792359
-1.13405
-0.77752
-0.766336
-0.779651
-1.14074
-0.778462
-0.769796
-0.772914
-1.13586
-0.794123
-0.86241
-1.42873
-1.05632
-0.990527
-0.861503
-0.854617
-1.14218
-0.9642
-0.979101
-0.963784
-0.954022
-0.944489
-0.93562
-0.927395
-0.924969
-0.944796
-0.959116
-0.845438
-1.04854
-1.05268
-0.852335
-1.05627
-1.06077
-1.13474
-1.13739
-1.14628
-1.14783
-0.720004
-1.06568
-0.740639
-1.06238
-0.712951
-1.05699
-0.73446
-1.05293
-0.838659
-0.804079
-0.966197
-0.854156
-0.969931
-1.09344
-0.881083
-1.06936
-0.89445
-1.07702
-1.07605
-0.890324
-1.07853
-0.906503
-1.08803
-0.900684
-1.09039
-0.914845
-1.10599
-1.10699
-0.914692
-1.08932
-0.913558
-1.08534
-1.08762
-0.915958
-1.1055
-1.10632
-1.08425
-0.913083
-0.963365
-0.914375
-0.901047
-0.89123
-0.882132
-0.874185
-0.867597
-0.821754
-0.82731
-0.872268
-0.869938
-0.880172
-0.876758
-1.0653
-1.07119
-0.869199
-1.07587
-1.08412
-1.16133
-1.15992
-1.17877
-1.17416
-0.739734
-1.07344
-0.757423
-1.0911
-0.728887
-1.07364
-0.74839
-1.07532
-0.8543
-0.81843
-0.982113
-0.874073
-0.995042
-1.10729
-0.900148
-1.08398
-0.911318
-1.11447
-1.10117
-0.915948
-1.09193
-0.906611
-1.07606
-1.15961
-0.912605
-1.10091
-1.0208
-0.937258
-0.873037
-0.938957
-0.964607
-0.81552
-0.850398
-1.11163
-1.05588
-0.764308
-0.881702
-0.877291
-0.8709
-0.863388
-0.856456
-0.851072
-0.848479
-0.822949
-0.831322
-0.961802
-0.835024
-0.636146
-0.76602
-0.872506
-0.796363
-1.14983
-0.70673
-0.82407
-1.05562
-0.926526
-0.831663
-0.877256
-1.05753
-0.855182
-1.01967
-0.865499
-1.04822
-0.871922
-1.04509
-1.04322
-0.865345
-1.0523
-0.851913
-1.05627
-0.925336
-0.911643
-1.05337
-0.904319
-1.05153
-0.913013
-0.912073
-0.897337
-0.898821
-0.862026
-0.933818
-0.911077
-0.85892
-0.910245
-0.763026
-0.935723
-0.827728
-1.06072
-0.869643
-1.05222
-0.870417
-1.04612
-1.04706
-0.868753
-1.05199
-0.880576
-1.05382
-0.872145
-1.05932
-0.888326
-1.06394
-1.06362
-0.878085
-1.06929
-0.928931
-0.91992
-1.06012
-0.914561
-0.91361
-0.910062
-0.911628
-1.05355
-0.901962
-1.07634
-0.90359
-0.892199
-0.933841
-0.922681
-0.91627
-0.898997
-1.07583
-0.928465
-0.79998
-0.958788
-0.847355
-1.08498
-0.873815
-1.06061
-0.885705
-1.06481
-1.06561
-0.881082
-1.06843
-0.897359
-1.07521
-0.889163
-1.07971
-0.906403
-1.08834
-1.08896
-0.899389
-1.09034
-0.899961
-0.981937
-0.971751
-0.954173
-0.944769
-0.935879
-0.927627
-0.925199
-0.926315
-0.943952
-0.95363
-0.968333
-0.867851
-0.8745
-0.882482
-0.986434
-0.971979
-0.962361
-0.944957
-0.93614
-0.954787
-0.945106
-0.872442
-1.05072
-0.865305
-1.04988
-1.04444
-0.866999
-1.05262
-1.05314
-1.04395
-1.04416
-0.868865
-1.05265
-1.05478
-1.04723
-1.05313
-0.867793
-1.04968
-1.02351
-1.02041
-1.02127
-1.02266
-0.867718
-1.05215
-1.05033
-0.872436
-1.04369
-0.868822
-1.0542
-1.05303
-0.880955
-1.05355
-0.873906
-1.06156
-1.06014
-1.06004
-1.0605
-0.872319
-1.05432
-1.054
-0.880951
-1.05383
-0.873921
-1.05981
-1.06216
-1.05629
-0.878658
-1.05425
-1.08149
-0.868832
-1.04624
-0.870968
-1.05237
-1.07638
-0.869361
-1.031
-1.02123
-1.07538
-0.877056
-1.05847
-0.855665
-1.0675
-0.875798
-1.06616
-0.855624
-1.05971
-0.876979
-1.07406
-1.02204
-1.03002
-0.853016
-0.903004
-0.894493
-0.898289
-0.687595
-0.930522
-0.884557
-0.906042
-0.907579
-0.683926
-0.895793
-0.865369
-0.883017
-0.931617
-0.687469
-1.28228
-0.944379
-0.920145
-0.792988
-1.05391
-0.894766
-0.867522
-0.869034
-0.89321
-0.834153
-0.924757
-1.05555
-0.77541
-0.944253
-1.28191
-0.920729
-1.30981
-0.940703
-0.865649
-0.864538
-0.86761
-0.874655
-0.963414
-0.888994
-1.064
-0.879796
-1.06934
-1.07005
-1.06885
-1.07216
-0.881262
-1.06402
-1.06567
-0.886374
-1.0608
-1.09006
-0.873696
-1.0551
-1.08518
-0.847939
-0.959474
-0.9624
-0.805127
-0.966947
-0.970879
-0.812676
-0.975448
-0.981938
-0.819471
-0.983051
-0.99598
-0.825698
-0.977084
-0.940716
-0.962079
-0.930936
-0.953521
-0.920969
-0.943915
-0.911936
-0.935628
-0.904444
-0.929098
-0.800624
-0.951936
-1.07927
-0.842223
-0.957255
-0.934704
-0.784523
-0.923082
-0.899296
-0.892249
-0.936078
-0.828298
-1.10356
-0.882173
-1.05756
-0.853111
-0.902972
-0.902375
-0.911299
-0.707416
-0.825595
-1.14937
-0.636283
-0.873317
-0.763192
-0.909965
-0.859
-0.766377
-0.796628
-0.925994
-0.833072
-1.05557
-0.86209
-0.898036
-0.894572
-0.90911
-0.914983
-0.913409
-0.917429
-0.924704
-0.880991
-1.06957
-1.10133
-1.09377
-1.06514
-0.927442
-0.919351
-0.913053
-0.907803
-0.907434
-0.910999
-0.917966
-0.936891
-0.895172
-1.07602
-0.890504
-1.07873
-1.08434
-1.0785
-1.11711
-0.889973
-1.07745
-1.10281
-0.863803
-0.720016
-0.943503
-0.93116
-0.944799
-0.958081
-1.08453
-1.16183
-1.15999
-0.75793
-0.85225
-0.843281
-0.748829
-0.889154
-0.885114
-1.07642
-0.898583
-0.894535
-1.08794
-0.879672
-0.996892
-0.891591
-0.901366
-1.00517
-0.989675
-0.981998
-0.963655
-0.95424
-0.972867
-0.954304
-0.957231
-0.954259
-0.944777
-0.963537
-0.962553
-0.953863
-0.936108
-0.954411
-0.968231
-0.976608
-0.859897
-0.933994
-0.925707
-0.912562
-0.914353
-0.919671
-0.905908
-0.904673
-0.895181
-0.906733
-0.857313
-0.919764
-0.924172
-0.922004
-0.933257
-0.93573
-0.94096
-0.949124
-0.946645
-0.959408
-0.944989
-1.08698
-1.09779
-0.889672
-1.0994
-0.976685
-0.961908
-0.968865
-0.973639
-0.880437
-0.946022
-1.20984
-1.24574
-0.742053
-0.990061
-1.35452
-1.01484
-0.844492
-0.999824
-1.01088
-0.860838
-0.86141
-1.4413
-1.03478
-1.00249
-1.27695
-1.10098
-1.10238
-1.04289
-1.06096
-0.782692
-1.14619
-0.962018
-0.97739
-0.963441
-0.982966
-0.973152
-0.972097
-0.891308
-0.889126
-0.884904
-0.898495
-0.894251
-0.851977
-0.843016
-0.834559
-1.10077
-1.10242
-0.89003
-1.07833
-0.903799
-1.09277
-1.08702
-0.901442
-1.08799
-0.914508
-1.09128
-0.901203
-0.891312
-0.972435
-0.986217
-0.996646
-0.880111
-0.98205
-0.96357
-0.954163
-0.944899
-0.963003
-0.87414
-0.867157
-0.864161
-1.05162
-0.905284
-1.04418
-0.896093
-1.02385
-1.06869
-0.865136
-0.895636
-0.908846
-0.677615
-0.900232
-0.900304
-0.912979
-0.917828
-1.05486
-0.914504
-0.904043
-0.961508
-0.934936
-0.918472
-0.911463
-1.08953
-0.94317
-0.811701
-0.974567
-0.863037
-0.980964
-0.920435
-0.952745
-0.935521
-0.925752
-0.925836
-1.06206
-0.921471
-1.06052
-0.920651
-0.935223
-1.07194
-0.930573
-1.0751
-0.930652
-0.945775
-1.08396
-0.930421
-1.11652
-0.961349
-0.824685
-0.976199
-0.885698
-1.14117
-0.940328
-0.947767
-0.964412
-0.962283
-0.939083
-0.884916
-0.931171
-0.912035
-0.959267
-0.956827
-1.09675
-0.943769
-0.962282
-0.961935
-0.953272
-0.930543
-0.955623
-0.949411
-0.939986
-1.08868
-1.08071
-0.932245
-0.9218
-0.945992
-0.965162
-0.965664
-0.959538
-0.930653
-0.955183
-0.948399
-0.938474
-1.07989
-0.95233
-0.941903
-0.932794
-0.856405
-0.850967
-0.848218
-0.813047
-0.842969
-0.864266
-0.873303
-0.884063
-0.963779
-0.965012
-0.969308
-0.97271
-0.924072
-0.721628
-0.807411
-0.909858
-0.961947
-0.9652
-0.96033
-0.942143
-0.928375
-0.917819
-0.910573
-0.90694
-0.908728
-0.907478
-0.894585
-0.898153
-0.898176
-0.86523
-1.05391
-0.861692
-0.911655
-0.9021
-0.914596
-0.913423
-0.870987
-1.04573
-1.04777
-0.867925
-0.945103
-0.926295
-0.882302
-0.94407
-0.959259
-0.820541
-0.867104
-1.27527
-1.13172
-0.701247
-0.822067
-0.968435
-0.954779
-0.936095
-0.953693
-0.962275
-0.944884
-0.963401
-0.874579
-0.882589
-0.882738
-0.891843
-0.98286
-0.906927
-1.0811
-0.889262
-1.07969
-1.08963
-0.900727
-1.08945
-1.09199
-1.08746
-1.08955
-0.901523
-1.08774
-1.09728
-1.08677
-0.904552
-1.09331
-1.10768
-0.874898
-0.728952
-0.947443
-0.934457
-0.94666
-0.963112
-0.96504
-0.939018
-0.938965
-0.884965
-0.961006
-0.931228
-0.911718
-0.96021
-0.958336
-0.940938
-0.927919
-0.942806
-0.933422
-1.07578
-1.07506
-1.07605
-1.07517
-0.891115
-1.08217
-1.08027
-0.907057
-1.08833
-0.902937
-1.09295
-1.0911
-0.915344
-1.10515
-1.10981
-1.10716
-0.913492
-1.00647
-0.991667
-0.964037
-0.966384
-0.970378
-0.977307
-0.910048
-0.903608
-1.10758
-0.789955
-0.727169
-1.14439
-1.06019
-1.06374
-0.977246
-1.03926
-1.04665
-1.05941
-0.770011
-1.13443
-0.939107
-1.13519
-1.14106
-1.13536
-1.13498
-1.10685
-0.885437
-1.04318
-1.33185
-0.750646
-0.985072
-1.11405
-1.03754
-1.10154
-1.02581
-0.99099
-1.29309
-1.0815
-0.797839
-0.864398
-1.43474
-0.856868
-1.14084
-0.794877
-1.14147
-0.940628
-0.980595
-0.970965
-0.989693
-0.989909
-1.00494
-0.990606
-0.982437
-0.990617
-0.971687
-0.963756
-0.983061
-0.972886
-0.986428
-0.891847
-0.902182
-0.901654
-0.990951
-0.914561
-0.861962
-0.764756
-1.18263
-0.760505
-0.973067
-1.08483
-0.922552
-0.967423
-0.976188
-1.10666
-0.786498
-0.723831
-1.14636
-0.961961
-0.940688
-1.13491
-0.766124
-1.13646
-1.05992
-1.06044
-1.0657
-0.944007
-1.04281
-1.33102
-0.984926
-1.03782
-1.04307
-1.04441
-1.04814
-1.05983
-0.774748
-1.13644
-1.07756
-1.04497
-1.07587
-1.06054
-0.771076
-1.13852
-0.942227
-1.1415
-1.14109
-1.01459
-0.914492
-0.914987
-1.01471
-1.01009
-0.868057
-0.916796
-0.915269
-0.963591
-1.00972
-1.01386
-1.01598
-0.933015
-1.17833
-0.945369
-0.941657
-0.948269
-0.935069
-0.924602
-0.917101
-0.912979
-0.91978
-1.05658
-1.05487
-0.878734
-0.827855
-0.976805
-0.886359
-1.06469
-1.06625
-0.881451
-1.07123
-1.06947
-1.06368
-0.888988
-1.06443
-0.92437
-0.909717
-0.906067
-0.915673
-0.91581
-0.907942
-0.924271
-0.916789
-0.927194
-0.940845
-0.951976
-1.1075
-1.104
-1.10791
-0.952144
-0.942796
-0.93345
-0.897754
-0.936754
-1.07756
-1.0763
-0.89507
-0.844181
-0.83514
-0.997139
-0.904686
-1.08991
-1.09116
-0.946686
-0.930875
-0.920721
-0.911826
-0.904457
-0.899184
-0.891953
-0.858781
-0.910084
-0.92335
-0.92973
-0.935748
-0.927698
-0.9446
-0.954198
-0.965885
-0.957318
-0.961612
-0.910125
-0.95812
-0.95909
-0.9591
-0.958837
-0.951948
-0.92996
-0.957455
-0.959122
-0.951714
-0.933277
-0.958432
-0.964034
-0.929074
-0.95996
-0.854353
-0.914833
-1.10037
-0.911965
-0.974321
-0.965719
-1.1407
-1.07834
-1.08138
-1.11381
-1.02551
-1.10118
-1.10237
-1.1009
-1.0787
-1.04236
-1.09802
-1.29175
-1.09716
-1.10347
-1.18275
-1.15381
-1.29835
-1.29951
-1.27934
-1.29555
-1.29351
-0.947247
-0.950784
-0.97104
-1.14841
-0.812603
-0.947182
-0.983297
-0.897755
-0.907075
-1.12901
-0.882195
-1.06988
-0.874003
-0.843932
-0.858807
-0.825633
-0.862064
-0.846887
-1.08098
-1.05353
-1.05343
-0.910855
-1.29358
-1.0978
-0.932376
-0.712896
-0.854836
-0.673443
-1.0606
-0.701793
-0.704395
-0.707586
-0.834646
-0.793252
-0.865156
-0.892802
-0.951659
-0.943744
-0.750751
-0.896035
-1.05632
-0.725146
-0.97538
-0.747902
-1.02488
-0.878515
-0.875926
-0.857158
-0.839304
-0.680037
-0.895977
-0.89715
-0.873268
-0.741565
-0.860117
-1.08354
-0.888584
0.910099
0.900421
0.913276
0.907138
0.906223
0.910379
0.918007
0.928752
0.942554
0.960687
0.95831
0.96006
0.71851
1.01052
1.14353
0.895697
0.995799
0.942217
1.17662
0.87817
1.12276
0.988128
0.82627
1.00608
0.992254
0.83081
0.993121
0.984304
0.822458
0.98158
0.974494
0.81016
0.972008
0.964658
0.804255
0.961015
0.959208
0.797479
0.949628
0.957475
0.783858
0.931148
0.936401
0.762106
0.871007
0.635266
1.14748
0.707525
0.825518
0.929753
0.688536
0.88294
0.908784
0.685885
0.901963
0.900264
0.690993
0.912022
0.874165
0.685074
0.902621
1.08396
0.751972
1.00757
0.949945
0.875492
0.8795
1.04202
0.871356
0.8762
0.875675
1.05063
0.877401
0.874739
0.860228
1.0519
0.893967
0.875806
0.83009
1.05404
0.923099
0.880999
0.794955
0.763964
0.670841
0.833363
0.982687
1.0225
1.03315
1.04154
1.04207
1.04732
1.05092
1.05502
1.06128
1.06629
1.07199
1.07805
1.08451
1.08924
1.09604
1.09564
1.08509
1.03786
0.855988
0.974055
0.991523
1.02221
0.950535
0.71874
1.28961
0.995597
1.05445
0.991798
1.02983
1.15385
1.18139
1.09917
1.04783
1.05203
1.0484
1.09906
1.28982
1.05439
0.841371
0.850187
0.949663
0.86256
0.841775
1.0083
1.30025
1.02973
1.36676
0.991661
1.15383
0.973869
0.99158
1.03995
1.20691
1.17507
0.885849
1.15002
0.881193
1.11355
1.02279
0.718123
0.949601
0.977348
1.13446
1.08966
1.10749
1.09137
1.08966
1.08084
1.07661
1.06917
1.0667
1.05755
1.05964
1.04688
1.05355
1.03874
1.03432
0.892999
1.29426
0.90758
0.89048
1.02311
1.04499
0.875775
1.04928
1.05023
0.884113
1.0583
1.05869
0.890935
1.0678
1.06826
0.898909
1.07878
1.07931
0.907755
1.0907
1.09097
0.915802
1.107
1.08685
0.91388
1.14426
0.932428
1.14062
0.978972
0.707487
0.985497
0.936833
1.14304
0.955544
0.717252
1.01439
0.895446
1.15332
1.08658
1.10865
1.0981
1.08764
1.09156
1.07049
1.08274
1.06367
1.05823
1.0597
1.04754
1.05501
1.03228
1.04273
0.899319
1.29852
0.933823
0.882686
0.987331
1.13509
0.846584
1.1226
1.1236
0.852885
1.12891
1.13248
0.85957
1.1532
1.04236
0.897135
1.09962
1.06846
0.906123
1.09991
1.08895
0.914144
1.11054
1.09455
0.909886
1.12934
0.998067
1.1435
0.895071
0.730604
1.22024
0.842729
1.17489
1.12629
0.878733
0.996015
0.924685
0.80836
0.672744
0.858139
0.722195
1.03928
1.08902
0.746067
1.1763
1.0883
0.885007
1.20629
1.15081
0.880799
1.11333
1.04121
0.776404
0.932615
1.36749
0.991462
1.15375
1.02988
1.30031
1.00863
0.842142
0.9499
0.862551
0.798163
1.146
0.850162
0.860696
0.793348
0.790484
1.14256
0.855563
0.855024
0.789688
0.793519
1.14249
0.861224
0.849768
0.796795
0.862867
1.14573
0.949669
0.841528
1.02968
1.00825
1.30078
1.02994
1.15377
0.990682
1.05476
1.28724
0.999047
1.02483
1.27557
1.02411
0.999796
1.28684
1.05437
0.841694
1.091
1.18067
1.09913
1.42925
1.01452
0.938239
0.978667
0.934791
1.14533
1.08753
1.08736
1.09059
0.913761
1.1458
1.13378
0.979559
1.14118
0.933486
0.942338
1.01654
1.44206
1.10287
1.09919
1.42885
1.01451
0.938169
0.879478
1.04146
1.20654
1.17563
0.745969
1.08597
0.776881
1.03752
0.722534
0.990431
1.11342
1.02633
0.945267
0.982956
0.981888
1.14109
0.946207
1.02532
0.990741
0.972978
0.860073
0.879062
0.832204
0.802645
0.965174
0.908906
0.963327
0.964051
0.967606
0.974492
0.835457
0.983954
1.00646
1.12948
1.13364
1.10603
1.13647
0.868221
1.00893
0.993612
0.881505
0.7381
1.0885
1.09308
0.726534
1.15617
1.08417
0.875905
1.1619
1.08802
1.09588
0.885592
1.17171
0.759013
0.855018
0.867992
0.91916
0.770329
1.09629
0.870231
1.0913
0.898906
0.889111
0.861108
0.8278
0.968031
0.943318
0.94551
0.960097
0.963047
0.961978
0.926916
0.93277
0.966864
0.942709
1.13449
1.1455
1.08659
0.914249
1.089
0.91892
1.10757
1.10783
1.09282
0.916319
1.08947
0.903665
1.09299
1.08895
1.08321
0.908484
1.07616
0.891361
1.0821
1.07564
1.07151
0.899744
1.06601
0.879367
1.0692
1.0664
1.05863
0.891171
1.05792
0.867785
1.05792
1.05946
1.04697
0.88376