/*--------------------------------*- C++ -*----------------------------------*\
| =========                 |                                                 |
| \\      /  F ield         | OpenFOAM: The Open Source CFD Toolbox           |
|  \\    /   O peration     | Version:  2306                                  |
|   \\  /    A nd           | Website:  www.openfoam.com                      |
|    \\/     M anipulation  |                                                 |
\*---------------------------------------------------------------------------*/
FoamFile
{
    version     2.0;
    format      ascii;
    arch        "LSB;label=32;scalar=64";
    class       volScalarField;
    location    "0.7";
    object      gradTy;
}
// * * * * * * * * * * * * * * * * * * * * * * * * * * * * * * * * * * * * * //

dimensions      [0 -1 0 1 0 0 0];

internalField   nonuniform List<scalar> 
5322
(
0.0423258
0.00595721
0.00220408
0.00180371
0.00168449
0.00114073
0.00060879
0.000275376
0.0001097
3.8414e-05
9.33314e-06
-7.0067e-06
-4.17503e-06
-4.34638e-06
-4.74233e-06
1.43287e-05
1.7303e-05
5.52095e-08
1.96893e-05
-5.05406e-05
7.6198e-05
-0.000162006
0.000244922
-0.000485774
0.00072499
-0.00127282
0.00180234
-0.00305078
0.00414892
-0.00628854
0.00817419
-0.0116313
0.0148362
-0.0167019
0.0183176
-0.0116683
0.0239104
0.0284253
0.0145275
0.0167921
0.0210224
0.0177438
0.0195274
0.0196689
0.0187642
0.0199129
0.0190692
0.0203905
0.020303
0.0181889
0.0230832
0.00960908
0.0117183
-0.034119
-0.0014961
-0.0194327
0.0111754
-0.025162
-0.000989263
-0.0218304
0.0113391
-0.0246914
-0.000872888
-0.0216781
0.0113988
-0.0256618
-0.00129768
-0.0211112
0.0116223
-0.029036
0.000713238
0.0199754
0.0110223
0.0155331
0.0114836
0.0146565
0.0121532
0.0146316
0.0124863
0.0177612
0.000966033
0.00799912
0.0113616
0.0172805
-0.000849969
-0.00531091
0.00251868
0.00463637
0.0111912
0.00182785
0.00302676
0.000474702
5.42865e-05
4.23839e-05
0.0178157
-0.0111536
0.000378418
0.0112648
0.000379015
-0.000983352
0.00263672
0.000417082
0.012178
-0.017311
0.0155453
0.000542516
-0.000420148
-4.01896e-05
1.49684e-05
3.24866e-05
2.43066e-05
1.36664e-05
6.40332e-06
2.47079e-06
9.75704e-07
3.79425e-07
5.22951e-06
-8.72846e-07
-8.86685e-07
-2.26912e-06
4.04574e-06
-7.0149e-07
-2.24659e-06
-3.69876e-06
-3.75862e-06
-2.03445e-08
3.44917e-06
-2.19912e-06
3.62091e-07
2.75589e-06
-2.6156e-06
1.26205e-07
2.74886e-06
-2.93558e-06
-2.2125e-07
2.38476e-06
-3.12719e-06
-3.93016e-07
-1.33798e-06
4.80748e-06
3.60704e-06
-3.82471e-06
1.72982e-06
1.40812e-06
-5.03922e-06
8.56037e-07
-4.03281e-06
2.55673e-06
3.33562e-06
-4.12802e-06
-1.84551e-07
-3.04989e-06
3.1481e-06
4.27457e-06
-3.19772e-06
1.23243e-07
-2.39383e-06
4.07887e-06
3.16252e-07
5.42428e-07
1.60085e-05
-1.13601e-05
2.39246e-05
-4.48038e-05
4.40435e-06
-1.15533e-05
2.07511e-06
3.63809e-06
2.23579e-07
3.07836e-06
-5.66726e-06
6.0168e-06
-1.47695e-05
1.94156e-07
1.56135e-05
-2.72386e-05
2.8769e-05
-5.20481e-05
6.93672e-07
5.26672e-05
-9.69105e-05
0.000101786
-0.000177798
1.87061e-06
0.000177466
-0.000309668
0.000323489
-0.000539133
4.52887e-06
0.000535256
-0.000882494
0.000918266
-0.00145069
1.02192e-05
0.00143464
-0.00224013
0.00232401
-0.00346057
2.14109e-05
0.00340786
-0.00505416
0.00522973
-0.00728365
3.91139e-05
0.0071304
-0.0100586
0.0103776
-0.0132665
6.74119e-05
0.0128855
-0.0173768
0.017496
-0.011205
-0.000103595
-0.00169713
0.000900038
-0.000442912
-2.36459e-05
8.50629e-05
0.000155923
1.85371e-05
0.0178402
-0.0111435
3.2889e-05
0.0135319
-0.00229752
-0.00124061
0.00114709
-0.000848861
0.0111826
-0.0175758
0.000114616
7.1043e-05
0.000215481
8.95253e-05
2.01649e-05
-3.2193e-06
-6.26744e-06
-4.06585e-06
-1.79582e-06
-7.52944e-07
-2.98883e-07
-3.90812e-06
-4.4511e-06
-4.488e-06
-3.87367e-06
1.30458e-06
3.04452e-07
-3.73026e-07
-4.55227e-06
9.96184e-07
-3.49451e-06
2.7312e-07
1.30718e-06
-3.42168e-07
-3.41363e-06
4.95315e-07
2.93083e-06
1.43792e-06
-4.56237e-06
1.00755e-06
3.22436e-06
4.5739e-06
5.66531e-06
-1.58896e-05
-1.58999e-05
-1.66925e-05
2.11859e-05
-4.7425e-05
7.78038e-05
-0.000152061
0.000253362
-0.000451223
0.000732002
-0.00121056
0.00187104
-0.00292032
0.00422086
-0.00630177
0.0083857
-0.0119577
0.0143991
-0.00192243
0.0111468
-0.000762106
0.000995306
0.0124757
-0.0109871
0.00104584
0.00760254
-0.00595625
0.00055844
0.00390413
-0.00278417
0.000266443
0.00174477
-0.00115554
0.000112487
0.00068311
-0.000430994
4.15919e-05
0.000234864
-0.000145487
1.3672e-05
7.08232e-05
-4.55341e-05
5.84291e-06
1.84253e-05
-2.8022e-06
1.845e-05
-4.54325e-05
5.85395e-06
2.12629e-05
-1.66756e-05
5.01336e-06
6.69535e-06
4.09359e-06
4.48229e-06
-1.46865e-05
1.64591e-05
-4.24297e-05
6.77233e-05
-0.000135987
0.000229079
-0.00040561
0.000670884
-0.00109399
0.00172109
-0.00265997
0.00389154
-0.00575967
0.00772565
-0.0106048
0.0127919
-0.000703666
0.00854256
-0.00477544
0.00127108
0.0178399
-0.0154341
0.00121971
0.0112861
-0.00804958
0.000614682
0.00573768
-0.00364425
0.000282134
0.00254212
-0.00148865
0.000118591
0.00100155
-0.000547436
4.4081e-05
0.000350313
-0.000180785
1.4747e-05
0.000108305
-5.49674e-05
6.20579e-06
2.84979e-05
-1.71539e-05
4.84249e-06
9.30907e-06
7.48569e-06
-3.55979e-06
1.41396e-05
-2.95972e-06
2.89963e-08
1.31365e-05
-1.26858e-05
1.96897e-05
-3.73221e-05
5.75567e-05
-5.42675e-05
-1.53938e-06
-3.27768e-05
2.71375e-05
-1.63838e-05
-8.8245e-08
1.55465e-05
-1.10829e-07
-1.24058e-06
-3.2547e-06
1.25972e-07
-3.03752e-07
6.80513e-08
-6.26151e-07
-5.65677e-07
1.51402e-05
-1.55956e-05
2.76767e-05
-5.26839e-05
1.34163e-07
9.85082e-05
-0.000177458
0.000315183
-0.000534565
2.78369e-06
0.000899712
-0.00143116
0.00228751
-0.0033975
1.60145e-05
0.00516172
-0.00711293
0.0102291
-0.0128998
-3.47128e-05
1.87474e-05
3.19575e-05
0.000100022
3.52934e-05
4.35284e-05
0.00523203
-0.00712748
2.22215e-05
0.00849722
-0.0117791
0.0104813
-0.0127882
0.000106278
0.0156862
-0.0196258
0.0127287
-0.0104083
-0.0219919
-0.0018345
0.000321118
-0.00782009
-0.00217401
0.000153903
0.00927974
0.0106673
0.000595552
-0.0116029
0.00667922
-9.017e-05
-0.00470974
0.00313417
-0.000107812
-0.00191963
0.00131425
-5.31259e-05
-0.000714758
0.000487149
-2.62286e-05
-0.000245673
0.000166226
-1.10831e-05
-7.11028e-05
5.11217e-05
-5.14689e-06
-1.86721e-05
1.62253e-06
4.35698e-06
-1.43587e-05
-4.00968e-06
3.11863e-05
-6.33489e-05
6.75552e-05
-0.000126319
0.000218612
-0.000381536
0.000602338
-0.000542739
-8.15021e-06
-0.00036576
0.000311729
-0.000181072
-4.05446e-06
0.000196949
-6.88057e-08
-1.34951e-05
-4.86525e-06
-4.63544e-06
-2.47093e-05
-8.32445e-06
-3.58767e-06
-3.12013e-06
3.79697e-06
1.24998e-06
3.96154e-08
-6.95084e-07
8.46745e-06
2.58393e-06
-1.21332e-07
2.52049e-06
-4.5108e-06
-1.70828e-05
-1.56368e-05
1.15163e-05
3.42825e-05
-4.0471e-05
-5.07528e-05
-0.000209521
-2.96186e-05
0.000308577
-0.000611737
0.000629182
-0.00102126
0.0016192
-0.00243205
0.00395815
-0.00342341
-1.04561e-05
-0.00262125
0.00229731
-0.00144744
-1.26578e-05
0.00163728
1.93645e-05
-5.56042e-05
-3.04438e-05
8.36046e-06
-0.000223304
-0.000115798
-8.0784e-05
-8.13263e-05
-3.94306e-05
-2.80074e-05
0.000101564
-1.08746e-05
-4.75978e-06
2.93157e-05
-3.74385e-05
-9.05286e-06
7.2123e-06
1.23445e-05
2.12025e-05
-2.65466e-06
-5.27789e-07
8.92752e-06
5.73812e-06
-4.73356e-05
-1.01075e-05
7.82826e-05
7.08829e-05
-0.000144984
1.37346e-05
-0.000152285
-3.06322e-05
0.00025472
0.000235468
-0.000429263
4.18892e-05
-0.00045395
-7.74562e-05
0.000733848
0.000686743
-0.00115139
0.000113517
-0.00122347
-0.000151412
0.00186741
0.00176112
-0.00277953
0.000269907
-0.00296693
-0.000158594
0.0041691
0.00397248
-0.00598183
0.000568709
-0.00641581
0.000382216
0.00806587
0.00785772
-0.0112108
0.00106583
-0.0119856
0.00316242
0.0132253
0.0132203
-0.00122495
0.00100179
-0.00165152
0.0505125
-0.0264429
-0.0275044
0.0380843
0.0101198
0.00323156
-0.0258578
-0.00663071
-0.00410888
0.00938188
-0.00996316
-0.000188968
0.000707435
-0.00253969
-0.00263898
-0.000601325
0.000655401
0.000270152
-0.000177229
-0.000306215
-9.42049e-05
9.72485e-05
2.02907e-05
4.53587e-06
1.29922e-07
-7.3275e-07
-6.42255e-07
-1.01586e-06
-4.10555e-07
5.90557e-06
-6.12358e-06
-3.87272e-07
-9.65386e-08
-6.37863e-06
6.14814e-06
-1.24756e-07
-5.8844e-08
-6.19896e-08
-5.47766e-07
-4.03969e-07
1.00631e-06
-2.90148e-07
1.15613e-06
-5.6553e-07
-6.66528e-07
-2.96949e-07
2.17428e-06
-3.14798e-06
3.27528e-06
-2.03787e-06
-2.11386e-06
-1.40498e-06
3.22728e-07
3.28442e-06
2.55276e-06
-2.44889e-06
-2.12073e-07
-3.19787e-06
3.68834e-08
1.0123e-07
-8.53142e-07
-3.01883e-06
-2.87938e-06
-3.13481e-06
-9.49306e-06
-2.73191e-05
-6.4764e-05
-0.00012402
-0.000164392
-7.12051e-05
0.000367933
-0.00132095
-0.000626143
-0.000303503
0.00221938
-0.00341794
0.00371183
-0.00524962
0.00749463
-0.0004781
-0.00734563
-0.000715984
0.00514827
-0.0002481
-0.000814381
0.000116836
6.70297e-05
0.000179015
0.000240881
-0.000245987
-0.00282547
0.00987716
-0.00491551
-0.0147421
-0.00259665
-0.00374477
-0.040037
-0.0115372
0.00152977
-0.0174631
0.0124612
0.00068621
0.00050916
0.0150023
0.0125511
0.00151783
-0.00143553
0.0163547
0.0147305
0.00158012
-0.00172218
0.0149221
0.016724
0.00148068
-0.00381813
0.0125106
0.0168499
-0.00612842
0.0104742
-0.0090103
0.0097081
-0.037756
-0.0203033
0.00300281
-0.00932298
0.0163517
-0.00103452
-0.0262354
0.016162
-0.000265486
-0.0189285
-0.0189377
-0.0269838
0.00762053
-0.0136165
-0.00946626
0.0133765
-0.0203727
-0.00368218
0.0116145
-0.00977779
-0.0012652
0.00651555
-0.00439083
-0.000565489
0.00307874
-0.0018532
-0.000271993
0.00128554
-0.000715729
-0.000117065
0.000480187
-0.000247465
-4.22614e-05
0.000161118
-7.61485e-05
-1.12163e-05
5.03156e-05
-1.99055e-05
1.0992e-06
1.41374e-05
-3.69093e-06
7.40499e-06
9.24881e-06
-1.72682e-05
2.84526e-05
-5.54659e-05
6.24577e-06
1.6402e-05
-1.471e-05
4.82103e-06
4.44129e-06
4.11201e-06
6.67623e-06
5.64709e-06
5.00393e-06
1.07235e-05
7.26404e-06
-9.33323e-06
-3.75166e-05
-0.000106594
-0.000109408
-0.000288624
-0.000710537
-0.000553135
-0.000283209
-0.000183726
0.000871032
-0.0015104
-0.000143493
-6.93086e-05
-0.000125348
4.51062e-06
-0.00103635
0.000896922
1.98192e-06
0.00054187
-0.000906247
4.58127e-06
0.00146163
-0.00229124
1.89349e-05
0.00349174
-0.005149
5.24225e-05
0.00733703
-0.0101967
8.79227e-05
0.0132226
0.000112079
0.000312885
4.45466e-08
-4.11014e-05
-6.88656e-05
3.53486e-06
1.26348e-05
6.58798e-06
2.36801e-06
5.89929e-07
7.2754e-08
3.54345e-10
1.56739e-08
1.57959e-07
-5.97984e-06
2.93085e-07
6.55425e-07
1.40959e-07
-2.16174e-07
-1.3814e-06
-5.04203e-06
-1.6033e-05
-4.50318e-05
-0.000107465
-0.000156765
0.000667933
-0.000219545
-0.00055837
-0.000782452
0.014759
-0.0158477
0.0176888
4.70274e-06
-0.00254223
0.00209356
0.00627359
4.42309e-06
-0.00569872
0.00529011
0.00538112
-1.09232e-05
-0.00605107
0.0056129
0.00485931
-1.72447e-05
-0.0076661
0.00725337
0.0068817
-0.00016379
0.0105273
-0.0110606
0.010816
-0.01154
-0.00107319
-0.00537007
0.00755079
-0.000703138
-0.00731228
-0.000177209
-4.60172e-05
0.0246591
-7.15952e-05
-0.0248213
0.0166529
-0.000604974
-0.017223
0.0173028
-0.00037182
-0.0180849
0.0250071
-0.000235773
-0.0250064
0.0198774
-0.0198201
0.0196707
-0.0201794
0.000127668
-0.0247231
0.0244668
-1.11282e-05
-0.0173093
-0.000699868
0.0174149
-0.0149487
3.44165e-05
0.0267173
0.00977825
0.0243657
0.00912929
-0.00903206
0.0126611
0.00206577
-0.00769164
0.00691141
0.000801529
-0.00429088
0.00340848
0.000424788
-0.00203733
0.00155006
0.000196017
-0.000838239
0.000601797
8.63414e-05
-0.00031124
0.000216621
2.78651e-05
-0.000100859
6.41609e-05
5.84847e-06
-3.15084e-05
1.54696e-05
-4.01385e-06
-1.3051e-05
-2.55296e-06
-8.34934e-06
6.12175e-06
7.03014e-07
3.99092e-07
3.10815e-06
1.35556e-06
-4.76819e-06
-3.54957e-06
-4.58946e-07
-2.9301e-06
-1.4238e-06
-9.07272e-07
-3.29429e-06
-1.04184e-06
-1.18201e-06
-3.21809e-06
-4.81981e-06
-5.92094e-06
-4.85046e-06
1.69829e-05
2.93819e-06
-1.66056e-05
-5.54383e-06
4.26699e-05
4.95532e-05
1.01306e-05
-6.37585e-05
-1.39478e-05
0.000130956
0.00018362
1.80434e-06
-0.000349293
2.47569e-05
0.000551445
-4.5068e-06
-0.000996606
6.04542e-05
0.0014782
-2.38109e-05
-0.00252008
0.000108013
0.00351508
-6.63413e-05
-0.00563102
0.00019878
0.00738145
-0.000165213
-0.0111361
0.000197914
0.0135228
-0.000434792
-0.0195105
-0.000356401
0.000774565
-0.0116702
0.0191144
0.000101916
0.00953375
0.000453794
-0.00682877
0.011251
-3.7377e-05
0.00505549
0.000284387
-0.00348882
0.00575487
-2.02021e-05
0.00240844
0.000154244
-0.00155722
0.0025967
-4.79717e-06
0.00101671
7.60991e-05
-0.000616265
0.00103646
8.83463e-08
0.000381808
3.12205e-05
-0.000214904
0.000367511
1.1566e-06
0.000126488
1.16614e-05
-6.69539e-05
0.000116194
7.2838e-07
3.77387e-05
4.10524e-06
-1.95157e-05
3.30198e-05
1.81573e-07
1.27256e-05
2.65144e-08
2.96906e-06
-9.18867e-06
-7.32563e-06
3.64665e-06
-1.41078e-05
-1.18239e-06
3.13776e-06
-2.10076e-05
-1.22115e-05
-1.06704e-05
-5.37324e-06
-4.89261e-06
1.51566e-05
1.71081e-05
3.16111e-06
-1.55212e-05
-5.98656e-06
5.59884e-05
2.81918e-06
-0.000108071
1.07935e-05
-2.78019e-05
-8.52702e-06
-5.51402e-06
-2.20379e-05
2.98621e-06
3.42261e-06
4.92888e-07
-1.17118e-06
-3.22108e-07
4.62745e-06
-1.10128e-06
6.65135e-07
5.79519e-07
2.92582e-08
4.00188e-08
2.97577e-08
1.10816e-07
6.93218e-08
3.03058e-07
-1.0237e-06
-8.33566e-07
9.65712e-05
-0.0001154
-5.19199e-07
-1.71552e-06
-1.43358e-06
-2.47417e-07
-2.87224e-05
-2.50171e-07
5.21709e-05
-0.000100794
-3.47139e-07
0.000178263
-0.000319665
3.53196e-07
-1.77991e-07
-1.82325e-06
-6.51914e-07
-1.10945e-06
6.76849e-06
1.27702e-05
9.68635e-06
3.56908e-06
1.11279e-06
7.17185e-07
4.08989e-06
1.59853e-06
6.43486e-07
5.25266e-05
-9.31994e-05
8.55799e-05
-0.000151352
0.000272324
-0.000458543
1.94455e-05
-0.000100429
1.52184e-05
9.96499e-05
9.70679e-06
-3.22558e-05
5.58625e-06
2.83945e-05
5.16411e-07
2.96858e-06
1.06902e-05
-2.62864e-06
-3.6324e-05
0.000190965
2.50502e-05
-0.000207659
-3.94641e-05
0.000364079
0.000487784
8.34821e-05
-0.000618791
-0.000102654
0.00102888
0.00125035
0.000191516
-0.00158917
-0.000244477
0.00240062
0.00294199
0.000360994
-0.00365853
-0.000497833
0.00487358
-0.00731742
-0.000856061
0.00847272
-0.0130525
-0.000745451
-0.000541794
-9.14536e-05
-9.36066e-06
2.09908e-05
1.96775e-05
1.20039e-05
5.88423e-06
2.32889e-06
9.16802e-07
3.5324e-07
3.9492e-06
4.52663e-06
4.5571e-06
-2.99366e-08
3.57663e-06
3.19095e-06
3.09101e-06
3.71205e-06
2.37492e-07
4.66635e-06
-1.05989e-06
3.42626e-07
-1.04115e-07
3.91419e-07
2.76392e-08
8.44683e-07
4.79079e-07
-2.61085e-05
3.19465e-06
1.67954e-06
8.43428e-07
1.18535e-07
3.83649e-08
-2.47886e-06
2.58177e-06
3.28239e-07
-1.45578e-06
3.93726e-06
-1.11073e-06
1.26675e-06
1.00529e-05
5.49962e-06
1.3712e-06
4.09202e-06
-2.43192e-05
3.08539e-06
-1.70313e-05
-5.71435e-06
3.98482e-05
5.13735e-05
9.8527e-06
-6.5176e-05
-1.24549e-05
0.000161098
3.1102e-05
-0.000211695
-3.88348e-05
0.000392686
0.000473203
8.1323e-05
-0.000629877
-0.000108981
0.00101871
-0.00161737
-0.000250644
0.0023825
0.000270696
0.000148294
7.00194e-05
2.8468e-05
9.78966e-06
1.21968e-06
1.02584e-06
3.62475e-07
9.51254e-07
3.46696e-07
-4.39429e-07
-1.23037e-06
-9.64447e-07
-5.93789e-07
-1.91883e-06
-9.85727e-06
-9.61217e-06
-2.88799e-05
-3.01297e-05
-6.92395e-05
-7.85866e-05
-0.000276297
-0.000672628
-0.00154593
-0.001673
-0.00378464
-0.00327686
-0.00182924
-0.00788376
-0.0238465
0.00101896
-0.0387506
-0.0292135
-0.0228805
-0.0152864
-0.0132798
0.00488801
-0.0115805
-0.000334696
0.00314156
0.000498733
4.04437e-05
0.0144648
-0.0165374
0.0180355
0.000173356
-0.0022752
0.00338433
0.0072835
0.000236534
-0.0051475
0.00680944
0.00677691
0.000234922
-0.00549839
0.00700543
0.0063808
0.000171259
-0.00738341
0.0080428
-0.000341563
0.000354839
0.000215762
0.00247578
-0.0103279
-0.014767
0.00107254
0.0111407
0.000170618
-5.14806e-05
0.00689009
0.000115428
-0.0112366
0.0150573
5.7293e-05
-0.0186897
0.0110956
-0.00986776
0.00840131
-0.00227199
-0.0129175
0.00019533
-0.0167842
0.0226096
-0.019759
0.0163886
-1.12123e-05
-0.0163853
2.19819e-05
0.016222
-5.0339e-05
-0.0163055
6.51521e-06
0.0163751
-6.83977e-05
-0.0164361
0.0201256
-0.0229774
0.00182128
-0.0198061
0.0274429
0.00154578
0.000906314
-0.00980608
0.010299
-0.0107195
4.96015e-05
-0.00733247
0.00674224
0.000475452
-0.00841434
0.00612248
-0.0073846
0.000795594
0.0151308
-0.00798406
0.00459328
0.000862484
-0.00853139
0.0067404
-0.000163754
-0.000118593
-1.30267e-05
0.000179852
6.71245e-05
9.56506e-06
-7.0777e-06
-7.39934e-06
-4.32153e-06
-1.83399e-06
-7.61911e-07
-2.95916e-07
1.51396e-06
2.20274e-06
-4.46219e-08
-5.65113e-07
-4.0261e-07
2.94694e-06
4.93849e-07
-3.80278e-06
1.42377e-06
1.71575e-06
-4.04487e-06
-3.03418e-07
-3.11883e-06
-3.88885e-07
-1.34837e-06
-3.30237e-06
3.60969e-06
4.84782e-06
1.33462e-07
1.008e-06
-3.18961e-07
6.41649e-08
2.55279e-06
-3.10362e-06
-1.40076e-07
-4.17553e-06
4.25207e-06
3.18002e-06
-2.46657e-06
1.05406e-07
-2.80803e-06
1.01608e-08
2.83407e-06
1.6353e-08
6.36094e-08
-6.44112e-07
-1.24814e-06
1.54367e-07
-3.37207e-06
2.12045e-05
1.23219e-05
7.0798e-06
-9.45089e-06
-3.86032e-05
-0.000111185
-0.000288209
-0.000692333
-0.00156179
-0.00336446
-0.00336466
-0.00731714
-0.00793825
-0.0178309
-0.0285563
-0.026078
-0.0261618
0.0106725
-0.0141137
-0.00818386
-0.00883535
-0.0249801
-0.0290596
-0.0265055
-0.0265347
-0.0261497
-0.0263439
-0.0302344
0.0108145
-0.000505706
-0.00426939
0.0310843
-0.00800132
-0.0221889
-0.0200243
-0.00590392
-0.0071298
-0.0169004
-0.0173366
-0.00116778
-0.00269159
0.00105805
0.000874102
0.00047899
0.000216428
8.57498e-05
6.46822e-05
2.08746e-05
2.05646e-05
5.65476e-06
8.66694e-06
-2.67731e-05
-8.39174e-05
-0.000222749
-0.000532566
-0.00118415
-0.00258681
0.00126204
0.0010025
0.000959109
0.000680039
0.000375423
0.000169184
0.000167384
6.38626e-05
8.30529e-05
2.82921e-05
6.73924e-05
0.00010742
-0.000181211
0.000346391
-0.000544755
4.36585e-05
0.000226936
-0.000136575
1.47447e-05
-2.5127e-06
-9.35114e-06
-9.54676e-06
-4.26417e-05
-2.83513e-06
-3.42564e-06
1.45744e-06
-2.96178e-06
-9.67835e-07
-1.23768e-06
8.49627e-07
-5.06016e-06
3.33918e-06
-5.48198e-08
5.16054e-09
8.09027e-09
-4.50063e-08
1.5552e-06
-2.11856e-07
9.86717e-08
7.65522e-08
1.36076e-07
-9.59416e-07
9.13606e-08
5.70625e-07
4.18751e-07
5.36971e-07
-1.13125e-07
3.30414e-07
5.78112e-09
8.93917e-08
-9.73537e-07
5.10798e-06
4.10351e-06
-1.63623e-06
-7.66847e-07
-1.38484e-06
3.85088e-06
1.45596e-06
7.44076e-07
8.69855e-08
2.99198e-08
-6.08906e-07
-4.71597e-07
-1.07949e-06
-4.86035e-06
-1.96836e-06
-1.35978e-05
-7.75823e-08
-2.71112e-05
-2.93443e-05
-6.5057e-05
-7.59897e-05
-0.000405966
0.000662167
0.000989124
-0.00147122
0.00250576
-0.00356186
0.000271175
0.00169179
-0.00108971
0.000115869
-2.21509e-06
-3.11028e-05
9.04065e-06
-5.80089e-05
4.34261e-05
-0.000127571
-0.000154611
-0.00013418
-0.000158077
-0.000185755
-0.000189657
-7.37805e-05
-2.59108e-05
-1.26492e-05
0.00210071
0.000120655
8.77239e-05
2.21189e-05
7.73259e-07
-3.19384e-06
-2.33756e-06
-2.14456e-06
-1.02523e-06
-4.58173e-06
-2.41745e-06
-1.30028e-06
-7.5472e-06
3.38057e-06
7.10898e-07
3.64357e-06
1.21187e-06
-6.22983e-07
2.14022e-06
2.24126e-06
3.12631e-07
1.02223e-06
2.9491e-06
7.30561e-06
-5.93762e-06
2.96406e-05
1.02731e-05
1.56914e-05
0.000107319
3.56927e-05
8.62494e-05
0.00028117
0.000215315
0.000367997
-0.00246141
-0.00263162
-0.000374429
0.000389128
0.000536113
0.000202882
-0.00629159
-0.000172456
-9.25719e-05
-6.90418e-05
-0.000665565
-0.000190248
0.0155851
-0.000215153
-0.0182939
-0.000146064
-0.000720185
-0.0170527
-0.000787425
-0.000895759
-0.0118593
-0.00649806
-0.010335
-0.0243172
0.00268765
0.00606136
0.000355388
-0.000346212
-0.000303931
-0.00053619
3.33274e-05
-0.014012
0.0174938
7.48308e-05
-0.00398333
0.00180581
0.00581737
3.02895e-05
-0.00735248
0.00466204
0.00470301
-1.10036e-05
-0.00755926
0.00497687
0.00419536
-5.54392e-05
-0.00697371
0.00174726
-0.011024
0.00570721
0.00872012
-0.0100811
0.00287005
0.00107153
-0.000578117
-8.36361e-05
-7.30921e-06
2.48614e-05
2.22572e-05
1.3351e-05
6.46142e-06
2.493e-06
3.08261e-06
3.67902e-06
8.03495e-06
0.000175192
-0.000300249
1.93091e-05
0.00052546
-0.000859738
0.000772532
-0.00123886
0.00195239
-0.00297481
7.40809e-05
-0.000813404
7.77699e-05
0.000778207
3.98682e-05
-0.000301033
3.71008e-05
0.000296804
1.27177e-05
3.14735e-05
0.000108734
-2.75999e-05
-0.00027452
0.00152018
0.000146855
-0.00152722
-0.000244933
0.002306
0.0030168
0.000372581
-0.003571
-0.000493126
0.00598063
0.000684502
-0.00721278
-0.000909801
0.00846448
0.0108227
0.000827404
-0.0155105
-0.000920816
-0.0129064
-0.0153171
0.00092831
0.0105086
0.00870622
-0.0126679
-0.000867354
-0.000574542
0.000635857
0.000455734
0.000290101
0.000157518
7.36929e-05
2.96341e-05
1.61246e-05
3.85079e-05
8.66796e-06
1.47101e-06
1.56382e-05
5.07295e-07
0.00140268
-0.00218796
9.09163e-05
0.00332571
-0.00494833
0.00440333
-0.00631418
0.00888824
-0.0115421
-0.000228895
-0.00387583
0.000150057
0.0039286
8.82624e-05
-0.0019632
0.000132701
0.00182671
3.28879e-05
0.000164986
0.000706766
-6.55222e-05
-0.00118101
0.00757244
0.000447169
-0.00670184
-0.000907399
0.00892254
0.0107807
0.000839632
-0.0159883
-0.000851783
-0.0114736
-0.020759
0.000343971
0.0135045
-0.00138081
0.0069781
-0.000379905
0.0044323
0.00463919
0.00218038
0.00136861
0.0081994
-0.00461011
-6.98426e-05
0.00145013
0.000721272
0.000377185
0.000189001
8.45395e-05
3.30228e-05
1.0971e-05
3.14189e-06
7.84999e-06
-4.0961e-06
-7.02902e-06
-1.97173e-06
1.72605e-06
-5.55267e-06
1.91578e-05
-5.0696e-06
-5.47146e-06
-6.19628e-06
-4.44862e-06
1.43397e-05
1.72081e-05
2.98094e-06
-1.7776e-05
-5.48493e-06
5.00515e-05
9.94434e-06
-6.36283e-05
-1.27389e-05
0.000134523
0.00015995
3.08205e-05
-0.00021522
-4.14458e-05
0.000385794
-8.05577e-05
-6.10917e-05
-0.000265176
-1.98092e-05
-8.13548e-05
3.80393e-05
3.82184e-05
9.42211e-06
-7.31822e-06
-1.09249e-05
-5.43135e-06
-5.58573e-06
-1.29069e-05
-1.56764e-06
-1.4771e-06
1.08357e-06
2.15722e-07
5.88759e-05
8.46753e-06
-6.39795e-05
-1.3069e-05
0.000123619
0.000165285
3.09196e-05
-0.000213332
-3.80167e-05
0.000474369
8.39444e-05
-0.000618602
-0.000104613
0.00103081
0.00125282
0.000182809
-0.001949
-0.000350858
-0.00015854
-0.000764595
0.000260595
0.000262602
0.000106172
-2.17273e-05
-7.83868e-05
-5.96649e-06
-1.94306e-05
9.84998e-06
-1.18429e-05
-1.22109e-05
1.71748e-05
4.03912e-05
-2.58955e-05
-9.53472e-05
6.21272e-05
1.14028e-05
3.80134e-05
-1.01631e-05
0.000569699
6.58912e-05
-0.000598916
-0.00010568
0.00096895
0.00128823
0.000189888
-0.00158297
-0.000240192
0.00292151
0.000380268
-0.00360024
-0.000501216
0.00488363
0.00607036
0.000642209
-0.00875975
0.000422664
-5.16186e-05
-6.50394e-06
1.21741e-05
5.42872e-06
2.33344e-06
8.37408e-07
2.67915e-07
-1.10121e-06
-2.1974e-06
-2.68253e-06
-3.96351e-06
-2.2036e-06
-2.78944e-06
8.05704e-07
1.30654e-05
2.67594e-05
2.41163e-06
-4.21889e-07
-1.628e-06
-1.16596e-06
-8.51679e-07
-5.91378e-07
9.92311e-05
1.83504e-07
-9.85329e-05
0.000179765
5.55311e-07
-0.00031412
0.000316093
-0.000178708
0.000179003
-1.04904e-06
-0.000321673
0.000311158
-0.000181209
9.69358e-05
-8.64952e-07
-0.000101625
5.25438e-05
-5.3113e-05
5.34465e-05
-5.21067e-05
1.2276e-06
-9.6057e-05
0.000102139
1.40653e-06
-0.000177743
2.14766e-06
-0.000308884
0.000323317
3.02239e-06
-0.000538695
3.02464e-06
-0.000882511
0.000911898
-0.000890977
0.000895871
1.45819e-06
0.000540494
-0.000537552
-7.79335e-07
0.000541982
1.2658e-08
-0.000907472
0.000888085
-0.000542442
-8.82316e-06
-0.000365668
0.000217062
-3.05018e-07
0.000197002
-4.09533e-06
-0.000115772
6.77224e-05
-4.53285e-07
5.78842e-05
-5.43603e-05
2.73106e-05
-5.74229e-07
-2.89812e-05
-2.85553e-07
2.80038e-05
5.90327e-08
-2.7787e-05
5.48615e-07
2.91121e-05
6.87881e-07
-2.70166e-05
5.45812e-05
-5.73844e-05
1.74132e-06
1.69345e-06
7.30613e-07
1.01623e-06
4.81867e-07
-5.88754e-06
6.49513e-06
-6.2662e-06
6.30159e-06
1.39776e-08
5.45356e-10
-1.46627e-07
-6.4783e-06
5.93877e-06
-4.52948e-07
-2.61408e-07
2.3925e-06
-2.97994e-06
-7.57969e-08
-1.29871e-07
1.53487e-05
-1.59253e-05
1.60153e-05
-1.52176e-05
1.65049e-05
-1.54752e-05
1.42107e-07
3.26708e-07
-2.35921e-06
2.85747e-07
2.99461e-06
-3.28539e-08
7.60916e-07
1.48913e-06
2.16137e-07
6.68176e-07
1.79015e-06
6.47149e-08
4.4489e-07
-0.00143469
2.78283e-06
-0.00224153
0.00225154
-0.00227355
0.00224655
5.32776e-06
0.00145358
-0.0014428
-1.56238e-05
-0.00103121
0.000620583
2.5062e-06
0.000599219
-0.000381085
-2.96097e-05
-0.000211773
0.000309468
-8.09261e-05
-0.000601139
0.000849427
-0.000183194
-0.00150925
0.00209488
-0.000339897
-0.00335522
0.00460371
-0.000618563
-0.00682446
-0.00115836
-0.000403123
-0.000533041
-0.000180127
-0.000263976
-9.27222e-05
-0.000124506
-4.20901e-05
-5.1911e-05
-1.56946e-05
-2.89376e-05
0.000101539
-0.000126539
-1.1138e-05
-6.4676e-05
3.15436e-05
-5.91678e-06
-4.17226e-06
-1.89335e-05
-5.26518e-06
-1.56081e-05
-3.94954e-06
1.97928e-05
-1.01666e-07
-3.29794e-05
-1.5018e-06
-1.40594e-06
1.33618e-06
8.42926e-09
-6.9378e-07
-6.14306e-06
8.4228e-06
2.61272e-06
1.31263e-05
3.97352e-06
2.21191e-06
-3.87245e-07
3.03353e-08
-1.27979e-05
1.56293e-05
-1.64627e-05
-1.02033e-07
-4.07884e-07
-1.0182e-06
-6.09105e-07
-6.97186e-07
3.97717e-06
1.1608e-05
3.2197e-05
8.09756e-05
1.40149e-05
-0.00258584
0.00157311
-0.00101879
0.00161722
1.05636e-06
-2.03611e-06
-1.86316e-06
-4.46835e-07
-7.72477e-08
2.86271e-06
1.20623e-05
1.72838e-05
-1.96306e-05
-0.00339939
1.87868e-05
-0.00503592
0.005019
-0.00574634
0.00352353
4.78966e-05
0.00386828
-0.00242514
-0.000123992
-0.000106493
0.000466446
0.000371382
0.000678494
0.000866318
0.00378917
0.00562474
-0.00773004
0.000999044
-1.16196e-05
-7.55046e-05
0.000200367
-0.000183131
-0.000200015
-0.00262742
-9.70231e-05
0.000147617
-0.00562877
0.000567605
6.45278e-05
1.81511e-05
6.26449e-05
0.000181191
0.000271496
0.000100768
2.89255e-05
7.13617e-06
6.36188e-06
9.71918e-06
1.41555e-05
1.94698e-05
9.44831e-06
3.50011e-06
1.09142e-05
5.15864e-06
5.16271e-06
5.42733e-06
7.33926e-06
1.17193e-05
4.35944e-05
1.19462e-05
5.46511e-06
3.3828e-06
1.16118e-06
-1.00843e-06
-1.65421e-07
1.57063e-06
7.78406e-07
1.25657e-06
-3.77409e-07
2.54411e-06
6.88374e-06
7.7839e-06
1.72726e-05
2.53531e-05
2.84064e-05
7.02818e-05
3.16968e-05
6.85413e-05
2.73618e-05
0.0069704
-0.00990047
0.000255837
0.0127001
0.000267381
4.41424e-05
0.000161003
0.00118311
-0.00279914
0.0119389
-0.0102676
0.0216103
0.00307177
0.0124363
-0.0114131
0.0101795
-0.00942592
0.0071849
0.0081426
-0.0101711
0.00223893
-0.0112159
0.00760273
0.00783745
0.0144047
-0.000837103
-0.000392786
-0.00181533
-0.000170885
-0.00665962
-0.000174186
-3.19185e-05
1.72698e-05
2.73948e-05
4.50463e-05
1.61921e-05
1.92997e-05
2.12083e-05
2.30787e-05
-4.72419e-06
2.54038e-05
-1.05796e-05
0.00024979
0.000145911
7.96886e-05
-0.0023968
0.00360938
0.00028098
-0.00342545
-0.000499121
0.0048765
0.00618197
0.00064979
-0.00711239
-0.000891038
-0.00868453
0.00045669
0.000292272
-4.20665e-06
1.24016e-05
-3.7032e-06
0.000172127
2.38254e-05
1.16967e-05
1.54663e-05
1.01285e-05
5.74449e-06
7.49458e-05
3.02456e-05
1.02469e-05
-7.81232e-05
-1.94279e-05
0.000134009
-5.39318e-06
4.27461e-05
-2.04078e-05
-1.06772e-05
1.54557e-05
-6.06262e-06
-4.86791e-06
-7.34509e-06
9.43925e-06
-6.05906e-05
-6.71207e-05
-0.000263925
0.000116728
-6.77174e-05
-0.000105372
0.000162626
0.00029506
-0.000166293
-0.000931836
0.000371479
7.17317e-05
0.000278541
-5.58441e-05
-0.000624268
-0.000353334
0.000774366
0.00131226
0.000662971
-0.000174513
-0.000772942
-0.00015828
-0.000752621
0.000579775
-0.0003889
-0.00198664
-0.000351547
0.00240974
0.0010981
-0.000760447
-0.00450488
-0.000578616
-0.00548276
0.00168925
0.00052452
0.00210104
5.08338e-05
-0.0112385
-0.000112269
0.0022525
0.00323486
0.00442086
0.0118884
0.027815
0.0147154
0.0216966
-0.00239137
-0.00133982
-0.00903157
0.00165205
0.00180442
0.00345035
0.0143992
0.0210366
-0.00226288
-0.00119472
-0.000680904
0.00495057
-0.00435246
0.00105645
0.000571056
0.001493
0.00147089
0.00296806
0.0132045
0.0212437
-0.00231415
-0.00119683
-0.000679488
-0.00439237
-0.000840202
-0.000440915
-0.000203887
0.000214044
8.17602e-05
2.59897e-05
1.08711e-05
4.16685e-05
0.000484088
0.000938643
0.00150576
-0.00139076
-0.00206294
0.00293522
0.0120374
0.0237405
-0.00388542
0.00550745
0.00241469
0.00164686
3.48291e-05
-0.000124711
-5.79448e-05
-2.09466e-05
-4.86322e-06
4.04205e-07
1.2859e-06
1.08306e-06
1.83792e-07
5.99937e-08
-3.11099e-07
6.14813e-07
2.31242e-07
1.82831e-07
4.79678e-07
-1.55832e-08
-1.23461e-06
-3.65362e-06
2.69829e-06
4.85932e-06
-0.000195814
0.00018205
3.47308e-06
1.75104e-06
2.13117e-06
9.21977e-07
2.97503e-06
3.22128e-06
5.1977e-06
1.34715e-06
3.27657e-06
-2.8493e-05
4.73827e-06
1.46878e-05
6.01056e-06
3.77321e-06
4.76626e-06
5.09931e-06
4.87922e-06
8.89532e-06
6.62657e-06
6.34288e-06
8.36248e-06
3.97007e-06
6.17397e-06
2.26698e-05
2.06226e-05
0.00499488
1.75304e-06
-0.00498108
0.00707872
-1.19873e-05
-0.00971964
0.00971607
-0.00707003
0.00719853
3.22738e-05
-0.00980136
0.00983341
-0.00706958
-4.49591e-06
0.00818021
-0.00517653
-0.000158445
-0.000137135
7.27016e-05
0.000179478
0.000306542
2.76573e-05
-0.00137742
-0.00288351
-0.00501417
-0.000123496
-0.00174412
-0.000790883
-0.000226274
0.000224734
0.000199309
5.16494e-05
3.10745e-05
2.9697e-05
9.64853e-06
0.00344634
-0.00338959
0.00340109
-0.00343173
-8.13503e-06
-0.00498031
0.00504991
-2.6071e-07
-0.00718593
-3.59415e-05
-0.00975825
0.00981005
-1.59113e-05
-0.0131513
0.0129655
-0.0148415
2.71068e-05
-0.000126028
-4.28351e-05
8.50965e-06
1.70898e-05
7.9488e-05
0.000216002
0.000295274
0.00267592
-0.00238544
0.0508957
-0.00142309
-0.000205628
-0.000967156
-0.0108177
0.00259771
0.00638318
0.000470814
-0.000129967
-0.00527947
-0.000164803
9.68545e-05
0.00019466
1.63213e-05
2.17059e-05
0.000550611
0.000325292
-0.0170581
0.0155762
-0.000843945
-0.000490568
-0.000238508
0.00303221
-0.000916305
0.00246816
0.00409325
0.00778451
0.0147558
0.00298683
-0.00762107
0.00309889
-0.0111834
0.00247309
0.00101276
-0.00727841
0.000570007
-0.000116804
4.37911e-07
-2.58884e-05
4.2867e-06
8.02953e-05
-7.91941e-05
-0.000181826
-4.62422e-05
-0.000193853
-4.02251e-05
4.29756e-06
-1.59317e-06
7.82618e-06
2.89057e-06
2.72351e-06
-2.73008e-05
1.59078e-06
4.5551e-05