/*--------------------------------*- C++ -*----------------------------------*\
| =========                 |                                                 |
| \\      /  F ield         | OpenFOAM: The Open Source CFD Toolbox           |
|  \\    /   O peration     | Version:  2306                                  |
|   \\  /    A nd           | Website:  www.openfoam.com                      |
|    \\/     M anipulation  |                                                 |
\*---------------------------------------------------------------------------*/
FoamFile
{
    version     2.0;
    format      ascii;
    arch        "LSB;label=32;scalar=64";
    class       volScalarField;
    location    "0.7";
    object      gradTx;
}
// * * * * * * * * * * * * * * * * * * * * * * * * * * * * * * * * * * * * * //

dimensions      [0 -1 0 1 0 0 0];

internalField   nonuniform List<scalar> 
5322
(
-0.0168088
0.00135842
0.00126092
-3.69469e-05
-7.38082e-05
-4.37067e-05
-1.86716e-05
-6.4734e-06
-1.92335e-06
-3.5482e-07
1.23138e-07
6.33568e-07
5.57178e-07
-5.63559e-06
5.64964e-07
1.59581e-05
-1.12942e-05
2.13329e-06
-1.15639e-05
2.81451e-05
-3.28427e-05
9.91865e-05
-9.63156e-05
0.000297872
-0.000306093
0.000766751
-0.00075725
0.00180617
-0.00184205
0.00367863
-0.00348235
0.00707953
-0.00510961
0.0127712
0.00204586
0.0218807
0.0155792
-0.00618064
0.016811
-0.00104801
-0.0160041
0.0159872
-0.000963117
-0.0169784
0.016948
-0.000549025
-0.0180212
0.0160597
-0.000323176
-0.018951
-0.0189345
-0.0269522
-0.00934029
0.0161924
-0.00106572
-0.0261227
-0.000834101
0.0247519
-0.000280428
-0.0247059
-9.27007e-05
0.0240885
-0.0001093
-0.0242813
5.20167e-05
0.023794
0.000393321
-0.0240742
0.00146965
0.0199634
0.00146968
-0.0171196
0.019488
-0.0199998
0.0192332
-0.019595
0.0196124
-0.0196459
0.0224416
-0.0167213
0.00751581
-0.0135855
-0.00952683
0.0134651
0.000918269
-0.00434477
0.0106873
-0.0302695
-0.00805991
0.0309983
-0.00145412
0.000129236
0.000188607
0.00243955
0.014971
-0.00227404
0.000961966
-0.000204152
0.0109727
-0.0266325
-0.0265347
0.0505603
-0.000264715
0.0116272
0.0190466
0.00119563
0.000327809
0.000162935
5.92148e-05
5.93813e-06
-8.8168e-06
-8.2655e-06
-4.7163e-06
-2.00509e-06
-8.15617e-07
-3.25772e-07
-5.0628e-06
-4.06022e-06
7.73267e-07
1.66754e-06
-3.07895e-07
2.36302e-06
-3.1185e-06
-3.92924e-07
-1.34172e-06
4.81409e-06
3.57173e-06
4.67219e-07
2.98351e-06
1.44991e-06
8.85179e-07
3.24195e-06
1.03724e-06
1.19457e-06
3.2575e-06
7.17536e-07
2.25026e-06
3.67955e-06
3.76108e-06
3.21909e-08
-3.44537e-06
-2.914e-07
2.30026e-06
-4.03628e-06
-5.18305e-06
9.26942e-07
8.94698e-07
-1.92955e-07
-3.91088e-06
-4.51389e-06
1.15576e-06
4.93845e-08
3.5948e-07
-4.49391e-06
-3.9131e-06
1.20679e-06
-4.65798e-07
1.41119e-06
-3.84232e-06
4.76331e-06
-1.43033e-05
-1.73476e-05
2.86212e-05
-5.59913e-05
-4.65428e-06
-1.99471e-05
1.11365e-07
1.4162e-05
-2.96749e-06
9.23607e-06
4.38375e-06
6.86439e-06
-1.71281e-05
4.92337e-06
-1.51261e-05
1.68008e-05
2.21084e-05
-4.94371e-05
5.65524e-06
-4.26178e-05
6.46218e-05
8.15529e-05
-0.000159586
1.31849e-05
-0.000135111
0.000215242
0.000266164
-0.000474822
4.04557e-05
-0.000398845
0.00062809
0.000769622
-0.00127518
0.000109936
-0.00106836
0.00160597
0.00196803
-0.00307604
0.000260992
-0.00257612
0.00359561
0.00443809
-0.00662503
0.000546646
-0.00552892
0.00701967
0.00879076
-0.0125033
0.00101806
-0.0102834
0.0115916
0.0144035
-0.00192312
0.0105098
-0.0263256
-0.0268608
0.0506994
-0.00249836
-0.00262873
0.00024194
0.00266333
0.0149462
-0.0014531
0.0011206
-0.00199847
0.010145
-0.0267429
-0.0264122
0.0503864
-0.000564166
0.0116097
0.000938318
0.000496664
0.000187653
7.65706e-05
1.39768e-05
-6.33098e-06
-7.76926e-06
-4.72041e-06
-2.04936e-06
-8.5654e-07
-3.46722e-07
3.26297e-06
-4.15827e-06
4.23672e-06
-3.18042e-06
1.94958e-07
3.10021e-06
-2.38342e-06
1.28722e-07
-2.55276e-06
1.93012e-08
-3.01732e-06
-9.97358e-08
2.46523e-06
8.52702e-09
2.19914e-06
-3.22441e-07
-2.7096e-06
-9.69215e-08
2.57373e-06
8.28172e-09
1.44903e-08
5.83441e-06
-1.51944e-05
1.52806e-05
-1.45234e-05
2.85861e-05
-5.13837e-05
0.000100968
-0.000175394
0.000320236
-0.00053163
0.000907832
-0.00143042
0.00229587
-0.00341161
0.0051651
-0.00718029
0.0102555
-0.0130887
0.0176294
-0.0110748
0.000308353
0.0112306
0.000335785
-0.0171607
0.0127572
7.77877e-05
-0.00993623
0.00704875
3.98672e-05
-0.00499402
0.00336701
2.04608e-05
-0.00221407
0.0014175
9.74418e-06
-0.000872535
0.000529153
4.32708e-06
-0.000306363
0.000175636
1.79644e-06
-9.59604e-05
5.2161e-05
6.85204e-07
-2.6932e-05
7.85077e-08
2.71546e-05
-5.17451e-05
-4.5705e-07
-2.83814e-05
1.4641e-05
-1.47025e-07
-5.94365e-06
-5.00716e-07
5.68422e-06
-1.58819e-05
2.60822e-05
-5.21248e-05
9.32803e-05
-0.00017362
0.000301835
-0.000519785
0.000867762
-0.00138573
0.00221934
-0.0032804
0.00505154
-0.00684847
0.0101404
-0.0122994
0.0174347
-0.0109307
-0.0030128
0.00446408
0.000462013
-0.0162575
0.011367
4.05889e-05
-0.00910936
0.00643525
-6.92447e-05
-0.00442117
0.00302455
-5.96133e-05
-0.0019436
0.00125219
-3.39031e-05
-0.000767082
0.000462006
-1.71202e-05
-0.000269641
0.000152281
-7.70522e-06
-8.43067e-05
4.4941e-05
-3.22045e-06
-2.35392e-05
1.13284e-05
-5.18669e-07
-3.0466e-06
4.04749e-06
7.04781e-06
-3.23259e-06
-3.8352e-07
-1.68887e-06
5.67871e-06
-1.90522e-05
2.41052e-05
-5.85229e-05
-3.93874e-05
-5.09962e-05
5.75796e-06
1.73338e-05
1.95123e-05
-1.71553e-05
4.48596e-06
-1.42402e-05
-3.37205e-06
-1.38698e-06
-4.04404e-06
1.0567e-07
-3.45396e-07
-3.6681e-06
-3.11288e-06
-3.20148e-06
-1.54247e-05
-1.69554e-05
2.05087e-05
-4.97219e-05
-1.04707e-05
7.8482e-05
-0.00016023
0.000260444
-0.000475762
-8.42942e-05
0.000759418
-0.00127616
0.00194844
-0.0030752
-0.000221187
0.00439343
-0.00658831
0.00864665
-0.0122437
0.00254706
0.000240276
-0.000100341
-7.38336e-05
-0.000185362
-0.000211587
0.00457904
-0.00677484
0.000598483
-0.00548667
0.00660764
0.00909262
-0.0122938
0.00119372
-0.0108206
0.0103634
0.0209454
-0.000868123
0.00179358
-0.028932
-0.0269991
0.0486414
-0.00348995
0.000296627
0.00058604
-0.00924767
0.00156559
0.00386835
-0.00405698
0.000192002
0.00205365
-0.00180581
-2.81664e-05
0.000848299
-0.00077539
-3.09744e-05
0.00029303
-0.00029163
-2.11598e-05
0.0001029
-9.70399e-05
-1.14044e-05
3.21695e-05
-2.65798e-05
-5.27796e-06
1.22902e-05
3.04626e-06
1.81388e-06
1.90811e-07
-2.64407e-07
1.37497e-05
-6.77746e-06
9.50828e-05
-0.000190625
0.000322139
-0.000573427
-0.000368017
-0.000489491
4.14622e-05
0.000212551
0.000266277
-0.000164379
1.34551e-05
-0.000123168
-2.71601e-05
-1.57559e-05
-5.56384e-06
-5.86241e-06
-1.04356e-05
1.27818e-06
-1.04474e-06
-1.37472e-05
-3.82498e-05
-9.09634e-06
5.90275e-06
5.47579e-06
5.17583e-06
2.14617e-06
1.30173e-05
2.63338e-06
1.30764e-05
2.92933e-05
-5.72013e-05
-0.0001142
-0.00030238
-0.000163271
7.3455e-05
-3.36341e-05
1.0465e-05
0.000110054
-0.000102976
0.000945776
-0.00154894
0.00244287
-0.00378098
-0.00245739
-0.00317414
0.000273684
0.00155665
0.00201679
-0.00131559
0.000113664
-0.000999599
-0.00013061
-5.79105e-05
-3.46598e-05
-3.5544e-05
-8.07272e-05
-9.45111e-06
-2.75901e-05
-3.20352e-05
-4.91365e-06
-9.98369e-06
4.04903e-05
2.8119e-06
-1.53311e-05
-1.8727e-06
7.05668e-07
-4.10755e-08
-6.06585e-07
3.82821e-07
-7.67127e-06
-2.91455e-06
-2.17355e-06
-1.18431e-06
-5.01658e-07
5.19331e-05
-2.03996e-07
-0.000100291
9.68736e-05
-0.000174027
-8.25813e-07
0.0001777
8.41667e-07
-0.000318103
0.000309882
-0.000523792
-6.21125e-07
0.000539746
4.97848e-06
-0.000901501
0.000884218
-0.00140201
2.32402e-06
0.00145499
1.79177e-05
-0.00228004
0.0022471
-0.00332891
1.34402e-05
0.00347543
4.64865e-05
-0.00513258
0.0050708
-0.00697125
4.23764e-05
0.00730515
6.36968e-05
-0.0101888
0.0100592
-0.0126452
8.42551e-05
0.0131761
-8.12848e-05
-0.017466
0.0172139
-0.0111453
-3.56497e-05
0.0110491
-0.000851558
-0.0022185
-0.00136109
-0.00280238
-0.0246722
0.0045569
0.00207227
-0.00176158
-0.0034704
-0.000715636
-0.0146522
0.00366356
-0.00835937
-0.00997653
-0.000936964
-0.00280513
-0.00397485
-0.00172724
-0.000948798
0.000396648
-0.000395586
-0.000738162
-0.000666751
-0.000270964
-0.000103832
-3.64629e-05
-8.8641e-06
7.52485e-06
4.88375e-06
5.50922e-06
6.2656e-06
1.09891e-05
1.07523e-05
6.00862e-06
6.08781e-06
4.89432e-06
-4.67094e-06
1.07583e-06
-5.54688e-07
-3.70652e-07
9.76437e-07
-4.06123e-06
-5.52709e-08
5.14853e-09
3.51298e-09
3.05739e-08
-2.49259e-06
-3.17449e-06
-3.19534e-06
-2.46728e-06
2.53792e-06
-1.41013e-06
3.37845e-07
3.2999e-06
-2.07204e-06
-2.03793e-06
3.52086e-07
3.24705e-06
3.10746e-08
8.55393e-08
8.91414e-08
7.33045e-08
-7.32429e-07
-3.7082e-07
-1.17072e-06
-2.37412e-06
-2.64713e-06
2.92746e-06
2.50909e-05
-4.73968e-05
-9.9378e-05
-0.000342448
4.56489e-05
-0.00016743
0.00059282
-0.000827203
0.0056628
-0.00823108
0.0118337
5.79875e-05
-0.0033191
-0.000757927
0.000937189
0.000108341
0.000619167
0.000814439
-0.00156449
-0.00351458
-0.0076944
-0.0187367
-0.0193766
-0.0415543
-0.0149848
-0.0125123
-3.4718e-06
-0.00465484
0.00505175
-0.0388321
-0.0239658
-0.0119068
0.0166096
0.00135353
0.000662335
-0.0166276
0.0175211
0.000148889
-0.00220679
-0.0180713
0.0175199
3.22645e-05
-0.00245671
-0.0176849
0.0174446
0.000105563
-0.00390839
-0.0169189
0.0124572
-0.0113283
0.0102076
0.00780738
0.0216011
-0.0101834
-0.0055418
0.00311756
0.0117351
-0.0339091
-0.00150893
-0.0195544
0.0205014
0.0202937
0.0181714
0.0230796
0.00959476
0.00105158
0.00800555
0.0113722
0.0171775
-0.00447812
0.0013827
0.00809167
-0.00378027
0.000127551
0.00386375
-0.00191572
3.73928e-05
0.00179585
-0.000793249
2.52886e-05
0.000765251
-0.000293519
1.34424e-05
0.000292307
-9.78444e-05
5.21665e-06
9.84214e-05
-3.13903e-05
6.44324e-07
2.81516e-05
-1.1322e-05
-2.75121e-06
3.63376e-06
-6.95932e-06
-4.06606e-06
3.09355e-06
-1.1235e-05
2.39486e-05
-4.43951e-05
3.32371e-06
-2.59237e-05
1.59149e-05
5.84517e-07
-5.62032e-06
5.29523e-07
5.97024e-06
-5.79273e-06
2.01363e-07
2.4809e-07
5.53198e-08
1.09117e-07
4.09422e-07
1.37336e-06
3.33752e-06
1.15554e-05
3.48854e-05
-0.000175028
-1.80751e-05
-7.44641e-05
0.000273611
-0.000284341
6.60805e-05
3.135e-05
0.00017819
0.000186533
0.000611675
0.000782376
-8.43333e-05
-0.000397207
0.000631138
0.000109613
-0.001067
0.00160855
0.000261844
-0.00258613
0.00359066
0.000551697
-0.00560337
0.00698458
0.00102062
-0.0105726
0.000938155
0.00125449
-0.00124327
-0.0012624
-0.007333
-0.00332334
-0.00151793
-0.000658812
-0.000269902
-0.00010418
-3.68055e-05
-9.05749e-06
7.48172e-06
4.7735e-06
5.3701e-06
1.07438e-05
7.14749e-06
-9.13434e-06
-3.77437e-05
-0.000109142
-0.000284236
-0.000686162
-0.00155565
-0.00337212
-0.00719429
-0.0172667
-0.0178907
-0.0301139
-0.0255619
-0.00881644
-0.00871585
0.0150119
0.0014964
-0.00186012
-0.00147391
0.00674306
0.000202177
-0.00555654
-0.00529419
0.00538832
-1.72847e-05
-0.00606866
-0.00578923
0.00476309
7.6333e-06
-0.00754466
-0.0071887
0.00243297
-0.0111468
0.00811384
0.00788426
0.00822794
0.00722013
-0.00937836
0.000712228
0.00320199
-0.0110935
0.00241811
-0.0101298
0.0113814
-0.0236946
-0.000813856
-0.022816
0.0189799
0.0207834
0.0195171
0.0191262
0.0201377
0.0190449
-0.0247406
-0.00102488
-0.0222914
0.0128206
0.0137804
0.0128752
0.0136165
-0.000830434
-0.0238088
-0.0236283
0.0114186
0.0195428
0.0186454
0.0172282
0.0215365
0.0219334
0.0167164
0.00459711
0.00921039
0.00398721
-0.00228643
0.00282774
0.000820652
-0.00209142
0.00112147
0.000272522
-0.00119385
0.000549401
0.000152529
-0.000594513
0.00023762
6.55979e-05
-0.000257275
9.9388e-05
3.41196e-05
-9.95283e-05
3.30163e-05
1.04017e-05
-3.4832e-05
9.26076e-06
2.86114e-06
-1.17913e-05
6.9386e-07
-1.47815e-06
-5.39976e-06
-1.97553e-06
-4.99489e-06
-6.23586e-06
-5.44844e-06
-3.6666e-06
-2.22644e-06
-3.71933e-06
-2.78313e-08
3.4185e-06
-2.17195e-06
3.70215e-07
2.74552e-06
-2.61202e-06
1.21187e-07
2.73614e-06
-2.93935e-06
-2.34444e-07
-4.24792e-07
-6.39732e-06
-1.48784e-07
-1.55767e-05
2.76501e-08
-2.72233e-05
6.93646e-07
5.23847e-05
-5.18953e-05
5.93002e-07
-9.28136e-05
8.23381e-06
0.000174412
-0.000151512
1.56163e-05
0.000272749
2.00142e-05
-0.000458938
3.77987e-05
0.000771678
4.07944e-05
-0.00123535
8.23539e-05
0.00193933
6.12721e-05
-0.00294405
0.000154924
0.00431928
9.19217e-05
-0.00618856
0.000271639
0.00852877
2.69891e-05
-0.0113458
0.00051086
0.0147473
3.3506e-05
-0.000650659
-0.0184466
-0.0133931
0.000765911
0.0130409
-0.000305907
-0.0104814
-0.00727939
0.000551646
0.00731133
-0.00015452
-0.00526827
-0.00362479
0.000300122
0.00351871
-7.67763e-05
-0.00233945
-0.00160275
0.000152364
0.00149316
-2.87383e-05
-0.000912862
-0.000627344
6.90136e-05
0.000559924
-1.03152e-05
-0.000313768
-0.0002172
2.65644e-05
0.000187942
-2.26893e-06
-9.32715e-05
-6.6661e-05
9.12441e-06
5.79658e-05
3.36433e-07
-2.376e-05
-1.75912e-05
3.2894e-06
1.88713e-05
1.72126e-06
2.88771e-07
3.06239e-06
-4.06065e-06
-6.95819e-06
3.60142e-06
-2.7867e-06
3.125e-06
7.75338e-06
-3.35934e-07
3.0284e-07
-5.94775e-06
1.94977e-07
1.55518e-05
-1.47076e-05
4.85638e-07
-2.59691e-05
3.30297e-06
-4.47731e-05
5.74279e-06
8.56472e-05
1.06004e-05
2.70555e-06
1.37907e-06
8.01761e-07
2.87053e-05
8.43986e-07
2.185e-08
-2.37316e-06
1.25391e-07
3.12335e-06
1.36024e-07
7.76645e-08
2.52054e-08
-5.43715e-07
-6.46451e-07
-5.26643e-07
-3.56694e-06
-3.19682e-06
-3.09532e-06
-1.02345e-05
-1.00861e-05
-1.05844e-05
7.87917e-05
6.54603e-05
-9.45795e-06
2.29387e-05
6.23019e-06
5.68847e-06
1.80204e-05
5.60905e-06
-4.2653e-05
6.64123e-05
1.29744e-05
-0.000134543
0.000217781
4.00184e-05
-3.07785e-06
-2.92133e-05
-3.26548e-05
-6.96665e-05
-0.000134533
-0.00017
-0.000138734
-7.13447e-05
-2.98084e-05
-3.24026e-05
-2.80068e-05
-9.72e-06
-1.0422e-05
-4.11463e-05
6.45975e-05
0.000108328
-0.000183349
0.000349866
-0.000551828
-2.52433e-05
-0.000249204
-7.47398e-07
0.0001621
-1.04808e-05
-7.65381e-05
-2.22158e-06
5.04957e-05
-1.13423e-05
-6.21712e-06
-6.40819e-05
-1.18503e-05
9.97826e-05
-0.000125376
-1.10161e-06
-0.000363591
-9.47676e-06
0.000592794
-0.000538783
-1.17371e-06
-0.000897829
-1.03494e-07
0.00143245
-0.00141858
6.13154e-07
-0.00220271
6.86077e-06
0.00332995
-0.00341906
-1.82295e-05
-0.00482154
0.000103055
0.00681505
-0.00946284
8.0925e-05
0.0124778
-0.0159997
-7.87554e-05
-0.000550393
-7.39093e-05
-3.91812e-06
2.34878e-05
2.10727e-05
1.28129e-05
6.27342e-06
2.48819e-06
9.86771e-07
3.90327e-07
-3.20667e-06
4.2687e-06
-4.15636e-06
-3.05881e-06
1.79747e-08
7.45427e-08
-6.80309e-07
5.01107e-08
2.51378e-06
-7.65759e-08
-7.57831e-08
-3.07714e-07
1.237e-07
-4.14309e-07
-3.40123e-06
-2.9715e-06
-3.24571e-06
1.57014e-05
6.08347e-06
-1.34411e-06
-1.09715e-06
-9.17359e-07
-3.30495e-07
2.10259e-06
2.19083e-06
-2.52716e-07
1.47121e-06
3.30862e-06
-2.21564e-07
-5.38298e-07
-1.22653e-06
-5.1285e-06
-1.33178e-06
-3.2909e-06
1.95844e-05
-1.85085e-07
-3.28918e-05
-1.61537e-06
5.722e-05
-5.41053e-05
-1.08992e-06
-0.000100755
-6.56291e-07
-0.00017693
-7.28977e-08
-0.000308745
3.59105e-06
0.000529221
-0.000536933
-9.95551e-08
-0.00085431
4.00531e-05
0.00138731
-0.00215933
7.06732e-05
0.00326996
6.84986e-06
1.0351e-05
7.24673e-06
3.81578e-06
1.5703e-06
8.16411e-07
8.53256e-08
2.6959e-08
-6.82647e-07
-2.11428e-06
-1.12769e-06
-1.54868e-06
-5.60272e-07
-6.78412e-07
3.00175e-07
2.89237e-07
3.29398e-07
1.04346e-06
1.1939e-06
3.3024e-06
3.66939e-06
4.01517e-06
1.01084e-05
1.96544e-05
8.99506e-05
0.000173855
-0.000679148
4.49396e-05
-0.00128886
0.00298525
-0.0215488
-0.00616532
0.000336556
-0.00189007
0.0108737
-0.0105642
-0.0306619
-0.0124884
0.000133828
0.0033629
0.000498363
-0.0257776
-0.0115099
-0.00786091
0.0143028
0.00149227
-0.00160369
-0.0026495
0.00734571
0.000216101
-0.00519033
-0.00634788
0.00631373
-1.91122e-07
-0.00568524
-0.00665911
0.00587508
4.42963e-05
-0.0073029
-0.00758494
0.0013
-0.00040401
6.04351e-05
5.52923e-05
0.0126105
-0.0114456
0.000266732
0.00883181
-0.000205387
6.52073e-05
-0.0111432
0.000455813
-0.00685019
0.00914692
0.000343696
-0.011672
-0.0206025
0.0134083
-0.00131244
0.00218538
0.00690462
-0.000354378
0.0176666
0.0127742
0.0143023
-0.0156369
0.000826576
-0.0131693
-0.000836923
-0.0145562
0.000947738
-0.0139494
-0.0008417
-0.0140282
0.000969496
-0.015001
0.0132747
0.0130366
-0.000868868
-0.0291142
-0.0233526
0.0113234
-0.00818785
0.0120578
0.00702655
0.00825139
-0.0100107
0.00269759
0.00210014
-0.0113965
0.00409882
0.00740595
-0.00948006
0.0167008
-0.0089608
0.00146424
-0.00809444
0.00115227
-0.00866591
-0.00676137
0.00105249
-0.000566739
-7.6357e-05
-3.46652e-05
1.6116e-05
3.25668e-05
2.44633e-05
1.38834e-05
6.55972e-06
2.55947e-06
1e-06
3.98622e-07
-1.44118e-06
2.59215e-06
1.11009e-07
5.56663e-07
3.79392e-07
3.39994e-07
-2.17836e-06
3.20861e-07
4.10022e-06
-2.23476e-06
-8.6716e-07
4.06587e-06
-2.22951e-06
-3.69551e-06
-3.74436e-06
4.07963e-06
3.45574e-06
-1.4596e-08
-9.64199e-08
-9.40243e-07
3.37773e-07
3.70481e-06
3.10247e-07
-8.12665e-08
-1.02638e-06
4.54996e-06
4.58304e-06
-1.19139e-07
3.45319e-07
4.71956e-06
-9.54866e-07
-3.39481e-06
-9.72474e-07
3.65082e-06
3.33139e-06
3.1864e-06
1.44689e-06
2.14183e-06
3.22571e-06
7.88691e-06
-3.29277e-07
6.98638e-07
2.25581e-07
-1.1111e-08
-9.16141e-07
-4.04321e-06
-1.37752e-05
-3.9791e-05
-9.58602e-05
1.73822e-05
-4.01844e-05
0.000133895
-0.000644778
-0.000115778
0.000995318
-0.00150127
-0.00044172
-0.000475888
-0.0151509
0.0145421
-0.000447349
-0.000332622
0.00107941
-0.000868056
-0.000387977
0.00272601
0.00461215
0.00251891
0.0121863
-0.0053176
0.00189201
0.0112212
0.011888
-0.00273539
0.00145763
-0.000131616
0.000704411
-0.000175935
3.92123e-05
-0.00105819
5.91613e-06
5.24122e-05
9.97186e-06
-1.26037e-06
-2.39092e-06
9.89092e-07
-4.3784e-07
1.43532e-06
7.04383e-07
1.42362e-06
1.10693e-05
3.31073e-05
8.44153e-05
0.000188646
0.000376582
0.000723751
0.000280831
7.53706e-05
0.000167251
7.99972e-05
2.58473e-05
6.80273e-06
7.30273e-06
3.13044e-06
6.18516e-06
2.92728e-06
-9.2494e-05
8.54153e-05
-0.000149947
0.000271229
-0.000454379
1.99782e-05
-0.000297745
0.000174077
8.34568e-06
3.81202e-06
1.67438e-06
7.98419e-07
5.22973e-05
8.56748e-07
3.0204e-08
2.7269e-06
5.10164e-07
8.62325e-07
1.74931e-06
-8.19369e-07
5.2228e-06
3.97283e-06
-1.02258e-06
6.40016e-07
4.92323e-09
-6.60967e-08
1.54992e-06
-2.46323e-07
-6.25866e-08
1.11424e-06
-4.62839e-06
9.79705e-07
1.07108e-07
5.70379e-07
3.90281e-07
3.58546e-08
-9.76502e-08
3.43771e-07
4.96202e-07
-1.02507e-06
-9.45367e-07
5.24106e-06
-9.03852e-07
-2.20747e-06
-8.48085e-07
4.07493e-06
3.20917e-07
1.71585e-06
1.34233e-06
1.0604e-06
3.84599e-07
9.76992e-07
1.35996e-06
1.02802e-05
5.72909e-06
5.78318e-06
1.6624e-05
1.5743e-05
4.21672e-06
1.38476e-06
8.76013e-06
1.96171e-06
0.000521404
-0.000852244
0.000768231
-0.00122772
0.00193999
-0.00294809
9.29954e-05
-0.00216834
0.00139083
4.47343e-05
1.18587e-05
3.94163e-05
3.8221e-05
8.10658e-05
8.02049e-05
1.55299e-05
1.20208e-06
8.84071e-06
9.39091e-06
1.89993e-05
1.80942e-05
2.75976e-05
6.8395e-05
0.000113987
-2.91604e-06
0.000410398
8.37052e-05
1.83583e-05
-1.55653e-06
-4.48702e-06
-2.9642e-06
-9.73163e-07
-1.24227e-06
1.04921e-06
-1.0852e-06
-1.82726e-06
3.21415e-06
1.34452e-06
-4.70797e-07
-8.56019e-06
-5.04559e-06
-2.4666e-06
-2.46301e-06
-1.29621e-06
2.68843e-07
8.98664e-07
2.63213e-06
6.53541e-06
8.38645e-06
1.14551e-05
7.84335e-06
1.72644e-05
3.55788e-05
3.0668e-05
2.38561e-05
6.60928e-05
0.00021638
7.07352e-05
6.44079e-05
0.00320698
-0.000479191
0.000397035
5.37595e-05
0.000181672
0.00664038
-0.000222464
-0.000943732
0.00585588
0.00219656
-0.0256541
-0.00959667
-0.0143449
0.0152654
-0.0111349
-0.0119627
0.0138807
-0.0153819
-0.000810158
-0.00113991
-0.0159899
0.0144963
-4.34771e-05
-0.000635327
1.86877e-05
0.000283965
0.000371829
0.00617201
0.00230862
-0.0110611
-0.010642
0.0167181
0.00143603
-0.00390966
-0.00119942
0.00631647
0.000145941
-0.00744846
-0.00482993
0.00483121
-1.68697e-05
-0.00772793
-0.00529633
0.00424945
-3.26939e-05
0.00678926
0.00661425
0.000362697
0.00993671
-0.00978821
9.5968e-05
-0.00719466
-6.88984e-05
-0.000109376
-1.61729e-05
5.79019e-06
8.61186e-06
4.99572e-06
2.13441e-06
7.61318e-07
2.3067e-07
-1.00375e-06
-2.75456e-06
1.43141e-05
-0.000131388
0.000217904
4.2629e-05
-0.000390499
0.00063649
0.000999787
-0.00149139
0.00253397
-0.00361174
-0.000107438
-0.00187134
4.06612e-05
0.00129572
-5.66659e-05
-0.000722025
7.55813e-06
0.000483574
-0.000118768
-8.31354e-05
-0.000595585
-7.13392e-05
0.000836793
-0.00100919
1.01922e-05
-0.00256789
-2.25534e-05
0.00382988
-0.00337302
1.50994e-05
-0.00497884
1.60917e-05
-0.00698958
-1.43252e-05
-0.00956545
-3.05482e-05
0.0126091
-0.0131052
-2.08936e-05
0.0163555
-3.39895e-05
-0.0160798
0.0160136
-4.95645e-05
-0.0127598
0.0129108
-0.0162182
-6.32654e-06
2.00773e-05
0.000100864
5.68068e-05
1.54583e-05
-5.28549e-07
-3.50233e-06
-2.54753e-06
-1.42527e-05
-3.24992e-05
-6.69773e-05
-8.10739e-05
-0.000131397
-0.000165232
-0.00104884
0.00162658
0.000266587
-0.00253193
0.00364343
0.00568872
-0.0078378
0.0112605
-0.0149542
0.000155548
-0.00986811
0.000987053
0.00657165
-0.000140081
-0.00443465
0.000194432
0.00310376
-0.000573858
-0.000347404
-0.00332159
-0.000170484
0.00454784
-0.00513165
0.000103524
-0.0111578
3.46894e-05
0.0149249
-0.0127596
-1.75462e-05
0.0162401
9.84483e-05
-0.0185768
0.0109578
4.10501e-05
-0.00979769
0.00831018
-0.012819
0.000162418
-0.00288602
-0.00139874
-0.00228186
-0.00370818
0.011713
-0.020511
0.00431059
-0.00593157
-0.00258251
-0.00117436
-0.00052583
-0.000219059
-8.21136e-05
-2.60344e-05
-3.12128e-06
2.11697e-05
7.38444e-06
-3.66993e-06
2.58589e-06
-2.19985e-08
1.3013e-05
-1.26971e-05
8.3634e-06
-6.98661e-07
-6.13604e-06
-1.3512e-07
1.5456e-05
-1.63517e-05
-6.26827e-07
-2.87557e-05
-3.16259e-07
-5.25953e-05
-6.52009e-08
-9.68184e-05
1.73233e-06
0.000176086
-0.00017727
6.91522e-07
-0.000299037
1.89417e-05
0.000521907
5.26614e-06
2.27614e-06
0.000321391
1.44888e-06
0.000101462
-1.91221e-07
-9.94217e-07
-7.18716e-07
-1.07862e-06
-4.22285e-07
5.87186e-06
-5.15456e-08
-3.97895e-07
2.13628e-06
3.9387e-06
-1.5485e-05
-4.16323e-06
-3.74987e-05
-7.54075e-07
-0.000115258
-4.35665e-06
0.000194799
-0.000180139
-1.60006e-06
-0.000318507
-9.70781e-07
-0.000531785
2.13296e-07
-0.000875662
6.08428e-06
0.00141115
-0.00144043
-4.58353e-06
0.00227024
-4.89964e-07
2.64288e-06
0.000906621
-4.54642e-07
1.21369e-06
-8.19833e-07
-2.07241e-06
9.59262e-05
-1.48459e-06
2.70141e-05
1.20119e-06
-5.29429e-06
3.10396e-05
-4.50519e-06
3.61183e-06
-1.90121e-05
6.68577e-05
-1.65178e-05
-2.96995e-05
-0.000209887
-3.12211e-05
-0.000377468
6.82049e-07
-0.00102465
-1.70664e-05
0.00160071
-0.00143209
3.23346e-06
-0.00224815
4.73845e-06
-0.00335057
-1.33394e-06
-0.00489644
-1.55248e-06
0.00693285
-0.00716149
-4.22045e-05
0.00978447
-1.69944e-05
1.91532e-06
9.90879e-06
1.22283e-05
2.27012e-05
1.37266e-05
6.68398e-06
2.60247e-06
2.29135e-06
2.14208e-06
5.0818e-06
7.53337e-06
3.01361e-05
7.46075e-05
0.000158954
1.22956e-05
1.83591e-05
1.05712e-05
1.01389e-05
5.23255e-06
5.6981e-06
3.24928e-06
-1.20472e-05
-7.24408e-05
1.04336e-05
-7.06595e-05
0.000149329
3.23614e-05
-0.000234633
-0.000240799
0.000152102
0.000141394
3.19462e-05
-0.000224704
-0.000255997
0.000161066
-7.59528e-05
1.02925e-05
-6.85603e-05
4.4785e-05
4.75518e-05
4.69039e-05
4.51831e-05
1.03939e-05
-7.42543e-05
-7.01644e-05
-1.2065e-05
0.000143427
3.21488e-05
-0.000250375
-0.000230449
-3.72623e-05
0.000420282
8.6027e-05
-0.000734465
-0.000668952
-0.00068492
-0.000702761
8.72906e-05
0.000437089
0.000446085
-3.70688e-05
0.000413335
8.59134e-05
-0.000652035
-0.000750451
0.000474711
-3.87573e-05
-0.000212338
-0.000316968
2.59932e-05
0.000126964
-1.27435e-05
-6.5302e-05
-9.45718e-05
8.82678e-06
4.07755e-05
5.01977e-05
-1.8831e-05
3.14212e-06
-1.86298e-05
-5.33086e-06
-1.89284e-05
3.12758e-06
-1.85342e-05
-5.32867e-06
-1.89719e-05
3.17933e-06
-1.84398e-05
4.94531e-05
4.09497e-05
-5.57765e-06
-5.93847e-06
9.17019e-06
-7.35271e-06
-4.9171e-06
-5.32505e-06
-6.11106e-06
-5.7984e-06
-5.85818e-06
-5.1937e-06
-7.57199e-06
-1.07021e-05
-6.06114e-06
-5.37714e-06
-4.9262e-06
-3.24241e-06
-6.95269e-07
-1.17072e-06
4.72174e-06
-4.78597e-06
1.58995e-05
1.63102e-05
1.62059e-05
1.59316e-05
1.67454e-05
1.44752e-05
-4.39935e-06
4.06565e-06
-6.74623e-07
-3.22987e-06
-1.18326e-06
3.69221e-06
3.18331e-06
1.0252e-05
1.04963e-05
3.08184e-05
7.61371e-05
6.0357e-06
-0.000100952
0.00117306
0.000198905
-0.00175796
-0.00180382
-0.00166799
-0.00193087
0.000194809
0.00108861
0.0012527
-0.000104255
-0.000612953
-0.000923741
6.81289e-05
0.000374185
0.000564762
-8.61642e-06
3.69699e-05
-0.000102037
3.21628e-05
0.000105056
-0.000266222
7.30607e-05
0.000268486
-0.000605764
0.000167547
0.000683973
-0.00114292
0.000529102
0.00205235
-0.000115752
0.00170533
-0.000577561
0.000783654
-0.000352143
0.000375732
-0.000165292
0.000164619
-6.70427e-05
6.30013e-05
1.18012e-05
-3.50645e-05
0.000189383
-1.9698e-06
1.04783e-05
-1.18477e-05
3.08768e-06
1.75331e-05
-2.54714e-05
-1.16755e-05
1.08006e-06
4.35049e-07
-2.41333e-05
3.20407e-06
-1.73115e-05
-5.58726e-06
-5.92349e-06
9.839e-06
-5.524e-06
-5.47691e-06
-6.22043e-06
-5.03812e-06
-1.95537e-06
-5.47925e-06
-1.44265e-06
-1.49184e-06
-1.28601e-05
1.77232e-06
1.90212e-05
1.45092e-05
1.68908e-05
-4.40793e-06
-1.09265e-05
-7.34802e-06
9.289e-06
3.8003e-05
4.04247e-05
0.00011683
0.000295173
0.000663499
0.000151475
-0.0015638
-0.00237606
0.00150666
0.000995604
-0.00017393
-6.67311e-05
-2.15497e-05
-1.93157e-05
0.000105561
0.000260779
0.000575766
-0.000388039
-0.000242503
0.00293314
0.000379962
-0.00375854
-0.00438304
-0.00350622
-0.0054359
0.000288635
0.00236871
0.00357777
-5.00185e-05
8.10241e-05
2.94545e-05
1.72959e-05
3.8251e-05
7.42009e-05
-0.00490248
0.00437384
-0.00625745
0.000163229
0.000252739
0.000147825
0.000137986
2.26978e-05
-3.53817e-06
0.0032963
2.59957e-05
-7.72339e-06
0.0069112
0.000176243
-3.44254e-06
0.000291837
0.000458083
-7.50665e-05
6.64927e-06
2.28178e-05
1.12355e-05
1.52549e-05
-4.13692e-06
2.53665e-05
1.24685e-05
1.14025e-05
-7.98606e-06
2.18282e-06
1.29872e-06
-3.23831e-06
-2.08226e-06
-1.49865e-06
-4.48763e-06
-3.27814e-06
0.000113685
0.000212007
8.32512e-05
6.42928e-05
6.4494e-05
7.12262e-05
2.06174e-05
2.07493e-05
5.74492e-06
8.6724e-06
1.22778e-05
2.83728e-05
0.000169615
0.00016814
0.000371682
0.00037628
0.000422041
0.000679778
0.000674357
0.000860864
0.000465522
-0.00544044
0.00712762
0.00105143
-0.0100333
0.00123938
0.000977194
-0.00121092
-0.00186243
-0.0203109
-0.0221947
-0.0377889
0.00964652
0.00292569
0.016784
-0.00617683
0.0104059
-0.00111505
-0.0115509
0.0105735
-0.000219415
0.00671552
-0.000255089
0.00991655
-0.010865
-0.000861031
-0.000263767
-0.000294622
0.000142522
-0.00104343
0.00690177
-0.000260295
0.000473128
0.000193596
7.63263e-05
0.000102453
2.75655e-05
2.45173e-05
-0.000196293
-0.000190862
-0.000220784
-0.000112751
0.000113084
-2.11056e-05
-8.0641e-05
-6.07009e-05
0.00155321
-0.00240219
4.09217e-05
-0.00570544
-1.04059e-05
0.00810302
-0.00701507
2.74089e-05
-0.00969286
2.3791e-05
0.00959564
-6.58515e-07
5.13007e-06
4.93804e-06
1.09104e-05
5.95358e-05
0.00055809
9.50178e-05
2.44942e-05
5.05218e-06
-1.40999e-06
-6.41937e-07
1.5035e-06
5.3489e-07
1.5812e-07
9.79526e-05
-4.75892e-07
0.000176323
-2.9451e-07
5.17475e-05
2.75716e-05
-1.14857e-07
1.50464e-05
6.09298e-06
1.46599e-07
-3.8312e-08
-6.44097e-08
-3.39284e-07
-2.50625e-06
0.000307929
1.06446e-05
-5.19474e-05
0.000304392
-4.44392e-05
2.98386e-05
-0.000124495
0.000612543
-9.75918e-05
-0.000187372
-0.00149436
-0.000130859
0.00206647
-0.000263169
-0.000190373
0.00016913
7.58185e-05
1.48112e-07
0.000879155
1.42337e-06
0.00088434
8.6553e-06
1.55474e-05
0.00222432
8.10797e-06
0.00339704
2.50697e-05
6.91493e-05
0.00497041
-0.000530839
0.00347867
-0.000419453
-0.000631156
-0.0067572
-6.86285e-05
0.0068039
-0.00115289
0.000288969
8.91006e-06
-0.00173173
-0.00503183
-0.00019516
-0.000795925
-0.000315552
0.000199913
0.000189462
0.00973975
4.2957e-05
2.04961e-05
-2.17404e-05
-7.51506e-05
-0.0002931
-3.92634e-06
4.01571e-05
2.38765e-05
0.00709723
0.00493154
-5.92355e-06
-1.256e-06
-2.47381e-05
-7.70964e-05
-0.000118286
-0.000542045
-0.000178169
-0.000147955
-5.83804e-05
-1.52852e-05
0.00502639
-6.8346e-06
8.3658e-06
7.98463e-06
8.43388e-05
3.28655e-05
1.09481e-05
6.25185e-07
3.21678e-06
0.00018852
0.000372027
0.00067767
-2.63988e-05
0.000318011
0.000203184
-0.00043812
0.0021636
0.00517108
-0.00343101
0.0212979
0.00297603
0.00212733
0.00135975
0.00145098
0.00104056
0.000565842
0.00025862
0.000104709
3.76178e-05
3.79423e-05
9.33997e-06
-5.38291e-06
-5.39845e-06
-1.06872e-05
-4.7842e-06
-1.08774e-05
-5.51125e-06
9.67457e-06
3.99213e-05
-2.16204e-05
-1.28048e-05
0.000128276
0.000158206
2.99618e-05
3.17494e-06
2.1985e-06
9.55376e-07
1.95742e-06
3.67994e-06
5.70086e-06
1.43989e-06
4.03705e-06
2.39053e-05
4.7567e-06
1.64745e-05
6.86565e-06
5.43795e-06
4.88612e-06
4.28504e-06
7.78408e-06
9.03741e-06
5.18201e-06
7.38916e-05
0.00015676
0.000161671
0.00029575
-4.62486e-05
-0.00048883
-0.00408698
0.000393271
-0.00397432
0.0054362
0.000702815
-0.00791601
-0.00819085
0.00559517
0.00523583
0.000655013
-0.00746247
-0.00880209
0.00601341
-0.000495029
0.00500563
0.00751028
-5.59122e-05
0.000100285
-0.000757127
0.00131554
0.00226374
0.00325635
0.00467435
0.00443428
0.0119425
0.0278965
0.00446274
0.0147171
0.0218319
-0.0023526
-0.00132848
0.00164286
0.00109141
-0.000681592
-0.000352343
0.00254992
0.00273687
0.00267309
0.00258919
0.000386677
-0.0042718
-0.00388181
-0.000493352
0.00531922
0.000698801
-0.00851349
-0.0078047
-0.000891979
0.00944875
0.0100818
0.00893136
-0.000878874
-0.000122131
-0.000191273
-5.52967e-06
1.3845e-05
6.8937e-05
1.21969e-05
1.2998e-05
-2.46305e-05
-1.06717e-05
-0.000200705
0.0020302
-0.000231464
-0.000134718
-0.000292149
-0.000298046
-0.000189462
-0.00031533
-0.000141141
0.00522966
-0.000180596
7.94857e-05
2.12227e-05
9.47263e-06
0.000157487
0.000139021
-0.00259477
0.0123543
-0.00704001
-0.0236996
-0.0264717
0.0025088
-0.0128857
0.00558476
0.00185228
-0.00800346
-0.00907747
-0.000822662
-0.00120266
0.0079774
0.00743894
-0.000768086
-0.00731075
-0.000169378
0.00722216
-1.38139e-05
6.33334e-05
-4.47459e-06
5.87539e-05
0.0002564
0.000264775
0.000168751
3.7133e-05
1.94692e-05
-3.69745e-05
-3.85106e-05
4.36727e-06
-5.24932e-05
-6.6605e-06
4.48158e-06
0.000287982
0.000460523