/*--------------------------------*- C++ -*----------------------------------*\
| =========                 |                                                 |
| \\      /  F ield         | OpenFOAM: The Open Source CFD Toolbox           |
|  \\    /   O peration     | Version:  2306                                  |
|   \\  /    A nd           | Website:  www.openfoam.com                      |
|    \\/     M anipulation  |                                                 |
\*---------------------------------------------------------------------------*/
FoamFile
{
    version     2.0;
    format      ascii;
    arch        "LSB;label=32;scalar=64";
    class       volVectorField;
    location    "1.9";
    object      flux;
}
// * * * * * * * * * * * * * * * * * * * * * * * * * * * * * * * * * * * * * //

dimensions      [0 1 -1 1 0 0 0];

internalField   nonuniform List<vector> 
5322
(
(-2.11695e-06 5.39104e-06 -7.16892e-06)
(1.22196e-07 6.55031e-07 -6.51137e-06)
(1.28822e-07 1.77848e-07 -5.42235e-06)
(-1.32129e-09 7.86772e-08 -5.86096e-06)
(-8.93117e-09 1.52215e-07 -4.3919e-06)
(-7.59497e-09 1.67463e-07 -3.15934e-06)
(-5.23837e-09 1.436e-07 -2.17878e-06)
(-3.56566e-09 1.11381e-07 -1.44361e-06)
(-2.53833e-09 8.27177e-08 -9.27739e-07)
(-1.55369e-09 5.64946e-08 -5.97929e-07)
(-7.3519e-10 1.86181e-08 -4.13395e-07)
(4.18083e-09 -7.0859e-08 -3.53668e-07)
(5.84564e-09 -7.00279e-08 -2.48148e-07)
(-7.92804e-08 -6.44077e-08 -3.52723e-07)
(-8.89491e-10 -5.85786e-08 -3.93449e-07)
(1.51167e-07 1.34476e-07 -3.36752e-07)
(-1.1757e-07 1.76833e-07 -3.93657e-07)
(1.93671e-09 -2.14749e-09 -3.15735e-07)
(-9.82041e-08 1.40632e-07 -4.84815e-07)
(9.42705e-08 -2.10854e-07 -5.81789e-07)
(-1.2546e-07 2.3848e-07 -7.45766e-07)
(1.70727e-07 -3.20448e-07 -9.15933e-07)
(-1.80213e-07 3.77041e-07 -1.18178e-06)
(2.80821e-07 -5.06951e-07 -1.45837e-06)
(-2.92118e-07 6.02758e-07 -1.85115e-06)
(4.18481e-07 -7.59634e-07 -2.22326e-06)
(-4.21997e-07 8.87175e-07 -2.76257e-06)
(6.27646e-07 -1.13412e-06 -3.28703e-06)
(-6.31883e-07 1.30402e-06 -3.98669e-06)
(8.66874e-07 -1.57046e-06 -4.60596e-06)
(-8.2395e-07 1.78488e-06 -5.45471e-06)
(1.23799e-06 -2.11969e-06 -6.22e-06)
(-9.13498e-07 2.43257e-06 -7.14217e-06)
(1.79235e-06 -2.40639e-06 -7.80831e-06)
(1.62996e-07 2.47888e-06 -8.30281e-06)
(2.67434e-06 -1.42182e-06 -7.34353e-06)
(1.8972e-06 2.8623e-06 -8.70307e-06)
(-7.51656e-07 3.4799e-06 -8.56968e-06)
(2.07973e-06 1.76151e-06 -8.82966e-06)
(-1.24108e-07 1.98344e-06 -6.49118e-06)
(-1.97425e-06 2.57179e-06 -8.18098e-06)
(1.97894e-06 2.16135e-06 -8.44529e-06)
(-1.19804e-07 2.32e-06 -6.36327e-06)
(-2.10393e-06 2.40399e-06 -8.44807e-06)
(2.09372e-06 2.29305e-06 -8.3628e-06)
(-7.13758e-08 2.36533e-06 -6.47693e-06)
(-2.23573e-06 2.32976e-06 -8.57222e-06)
(1.97096e-06 2.49042e-06 -8.10477e-06)
(-4.60112e-08 2.40781e-06 -6.41172e-06)
(-2.34748e-06 2.21349e-06 -8.44427e-06)
(-2.33237e-06 2.79564e-06 -9.66655e-06)
(-3.34654e-06 1.24095e-06 -6.51812e-06)
(-1.11316e-06 1.46011e-06 -9.13234e-06)
(2.10699e-06 -4.48035e-06 -8.03687e-06)
(-1.39227e-07 -2.14998e-07 -7.13049e-06)
(-3.4381e-06 -2.57112e-06 -7.60279e-06)
(-1.06289e-07 1.42245e-06 -9.46205e-06)
(3.26623e-06 -3.34678e-06 -7.454e-06)
(-3.93861e-08 -1.56138e-07 -7.13767e-06)
(-3.26549e-06 -2.90762e-06 -7.58077e-06)
(-1.40936e-08 1.44341e-06 -9.5592e-06)
(3.18114e-06 -3.28849e-06 -7.55389e-06)
(-1.64861e-08 -1.38725e-07 -7.13554e-06)
(-3.20719e-06 -2.88646e-06 -7.39574e-06)
(3.64484e-09 1.45e-06 -9.5605e-06)
(3.13933e-06 -3.41187e-06 -7.82634e-06)
(4.73108e-08 -1.91825e-07 -7.11279e-06)
(-3.17653e-06 -2.80148e-06 -7.03634e-06)
(1.69672e-07 1.47176e-06 -9.38456e-06)
(2.62188e-06 -3.81152e-06 -8.36136e-06)
(1.5571e-07 1.12613e-07 -5.92715e-06)
(-2.48454e-06 2.93618e-06 -8.70886e-06)
(2.82237e-06 1.6286e-06 -8.2874e-06)
(-2.9076e-06 2.28451e-06 -8.16339e-06)
(2.79779e-06 1.69803e-06 -8.24004e-06)
(-2.85045e-06 2.15888e-06 -8.20053e-06)
(2.85267e-06 1.79555e-06 -8.19475e-06)
(-2.85477e-06 2.15292e-06 -8.17482e-06)
(3.25257e-06 1.83239e-06 -8.30859e-06)
(-2.3876e-06 2.57338e-06 -7.93852e-06)
(1.1196e-06 1.86307e-07 -7.73632e-06)
(-1.75015e-06 1.01444e-06 -6.2895e-06)
(-1.18511e-06 1.48043e-06 -6.5237e-06)
(1.83504e-06 2.34567e-06 -8.33434e-06)
(1.50154e-07 -1.4864e-07 -5.3506e-06)
(-7.94519e-07 -8.35703e-07 -7.37184e-06)
(1.34462e-06 3.13723e-07 -1.08392e-05)
(-3.72336e-06 5.93814e-07 -7.09042e-06)
(-1.16202e-06 1.28378e-06 -7.09217e-06)
(4.06973e-06 1.88583e-07 -6.12817e-06)
(-1.85346e-07 3.45504e-07 -7.55252e-06)
(3.82563e-08 6.12484e-08 -5.27045e-06)
(6.61748e-08 8.34821e-09 -5.55092e-06)
(4.44356e-07 7.9021e-09 -5.54293e-06)
(2.36524e-06 2.84238e-06 -7.1926e-06)
(-4.63529e-07 -1.64843e-06 -6.97319e-06)
(4.07839e-08 5.39701e-08 -6.57392e-06)
(-1.6149e-07 1.66641e-06 -7.06484e-06)
(1.3834e-06 5.17915e-08 -1.10189e-05)
(-3.28741e-06 -9.06421e-08 -6.88042e-06)
(-3.27982e-06 3.09521e-07 -6.9652e-06)
(6.69905e-06 5.46286e-08 -6.21306e-06)
(-1.63711e-07 1.78321e-06 -7.12153e-06)
(1.83057e-06 -2.76391e-06 -7.11614e-06)
(2.98942e-06 2.48072e-06 -7.77259e-06)
(7.37194e-08 6.06747e-08 -6.39712e-06)
(3.35115e-08 -5.63609e-08 -6.71737e-06)
(2.47407e-08 -6.82067e-09 -5.91848e-06)
(1.18862e-08 1.71875e-09 -4.44496e-06)
(3.72952e-09 5.43718e-09 -3.20598e-06)
(2.53777e-10 4.95467e-09 -2.2109e-06)
(-9.35227e-10 3.71254e-09 -1.46095e-06)
(-1.36252e-09 2.78423e-09 -9.32509e-07)
(-1.49213e-09 2.08963e-09 -5.95028e-07)
(8.40339e-10 -4.55069e-10 -4.67632e-07)
(-7.51416e-10 8.07592e-10 -4.02859e-07)
(-4.85506e-08 4.98192e-08 -2.90809e-07)
(-4.65648e-08 -1.86414e-08 -3.09686e-07)
(6.30604e-09 -8.09396e-09 -4.47999e-07)
(2.87147e-08 -3.6313e-08 -3.37976e-07)
(9.65113e-10 4.55461e-08 -2.91422e-07)
(4.19504e-08 -2.22648e-08 -3.43299e-07)
(-5.04454e-08 -4.51658e-08 -3.3845e-07)
(-3.97841e-09 -6.31986e-08 -4.70258e-07)
(-1.30498e-08 -7.0749e-08 -3.5363e-07)
(7.85668e-08 -2.71197e-09 -4.61066e-07)
(6.37088e-08 5.29997e-08 -3.3533e-07)
(1.66029e-08 -3.9327e-08 -3.50199e-07)
(5.01828e-08 3.87922e-09 -4.5383e-07)
(3.13632e-08 4.3405e-08 -3.3491e-07)
(2.34106e-08 -4.30577e-08 -3.43633e-07)
(5.39452e-08 1.87844e-09 -4.58385e-07)
(2.59739e-08 4.50429e-08 -3.40251e-07)
(2.79897e-08 -4.62359e-08 -3.37469e-07)
(5.48683e-08 -1.54645e-09 -4.60293e-07)
(2.24422e-08 4.18882e-08 -3.44478e-07)
(4.50041e-08 -5.04528e-08 -3.3902e-07)
(6.24408e-08 -4.17342e-09 -4.7221e-07)
(7.01784e-08 -1.30388e-08 -3.54785e-07)
(2.91203e-09 7.76808e-08 -4.62324e-07)
(-5.24765e-08 6.34537e-08 -3.3689e-07)
(2.18409e-09 -4.4423e-08 -2.92795e-07)
(3.63498e-08 2.8975e-08 -3.38601e-07)
(-4.51126e-08 2.24361e-08 -3.05752e-07)
(-4.95776e-08 -4.8657e-08 -2.91597e-07)
(8.33827e-09 6.59761e-09 -4.48657e-07)
(1.88438e-08 -4.64569e-08 -3.10158e-07)
(9.61089e-09 3.61487e-08 -3.08604e-07)
(-3.8708e-08 3.79256e-08 -2.88464e-07)
(-4.27409e-08 -4.20292e-08 -2.90813e-07)
(9.52497e-09 -5.75359e-10 -4.51068e-07)
(1.10185e-08 -3.82072e-08 -3.0909e-07)
(1.37927e-08 3.8653e-08 -3.07987e-07)
(-4.23002e-08 4.27935e-08 -2.89174e-07)
(-3.96384e-08 -3.76287e-08 -2.90617e-07)
(9.63904e-09 -6.90227e-11 -4.50633e-07)
(6.56734e-09 -3.51717e-08 -3.09084e-07)
(2.28572e-08 4.57677e-08 -3.05301e-07)
(-4.44326e-08 -1.9765e-09 -2.92204e-07)
(5.86183e-08 -9.60452e-10 -3.93918e-07)
(-1.33935e-07 1.5136e-07 -3.36674e-07)
(-1.7653e-07 -1.1741e-07 -3.94716e-07)
(1.82932e-07 1.52041e-07 -5.37758e-07)
(-2.48447e-07 -1.96065e-07 -6.29517e-07)
(-1.30208e-08 8.97013e-09 -3.58719e-07)
(-1.41306e-07 -9.73576e-08 -4.85982e-07)
(3.01258e-09 1.84884e-09 -3.16301e-07)
(1.25666e-07 6.97643e-09 -4.00434e-07)
(-2.89448e-08 -1.3187e-08 -2.56072e-07)
(1.31476e-07 3.9799e-08 -3.413e-07)
(6.46623e-08 -7.93035e-08 -3.5361e-07)
(9.71197e-08 7.93167e-08 -3.29661e-07)
(-1.60882e-07 -1.44699e-07 -3.7153e-07)
(5.93757e-08 5.55135e-10 -4.05171e-07)
(-1.38987e-07 1.48342e-07 -3.55719e-07)
(1.09007e-07 -1.71386e-07 -5.1062e-07)
(1.41626e-07 1.78471e-07 -5.06213e-07)
(-2.05993e-07 -2.2027e-07 -5.89801e-07)
(1.57246e-08 1.2168e-09 -4.44398e-07)
(-1.75112e-07 2.17687e-07 -5.89509e-07)
(1.94042e-07 -2.77305e-07 -7.53269e-07)
(2.41323e-07 2.87828e-07 -7.53707e-07)
(-3.19423e-07 -3.5904e-07 -9.33251e-07)
(1.59698e-08 1.79545e-09 -6.94734e-07)
(-2.67861e-07 3.52322e-07 -9.35083e-07)
(3.22483e-07 -4.46149e-07 -1.18719e-06)
(3.94305e-07 4.61724e-07 -1.18776e-06)
(-5.03571e-07 -5.72913e-07 -1.47417e-06)
(2.57037e-08 2.42266e-09 -1.104e-06)
(-4.20644e-07 5.62104e-07 -1.47656e-06)
(5.11257e-07 -6.99375e-07 -1.84769e-06)
(6.21764e-07 7.2312e-07 -1.84862e-06)
(-7.76617e-07 -8.81669e-07 -2.25742e-06)
(3.81329e-08 3.65349e-09 -1.70902e-06)
(-6.49076e-07 8.65462e-07 -2.26178e-06)
(7.68589e-07 -1.05661e-06 -2.7747e-06)
(9.37898e-07 1.09226e-06 -2.77771e-06)
(-1.16086e-06 -1.30056e-06 -3.31736e-06)
(5.34754e-08 5.83575e-09 -2.54322e-06)
(-9.72235e-07 1.276e-06 -3.32587e-06)
(1.09391e-06 -1.53288e-06 -3.99838e-06)
(1.34855e-06 1.58409e-06 -4.00626e-06)
(-1.67398e-06 -1.83094e-06 -4.66738e-06)
(7.36735e-08 8.59808e-09 -3.62443e-06)
(-1.39974e-06 1.79106e-06 -4.68203e-06)
(1.4704e-06 -2.12325e-06 -5.50932e-06)
(1.84393e-06 2.19108e-06 -5.52618e-06)
(-2.29398e-06 -2.41965e-06 -6.28367e-06)
(1.03275e-07 1.22517e-08 -4.92222e-06)
(-1.89288e-06 2.35233e-06 -6.30887e-06)
(1.82771e-06 -2.77203e-06 -7.14336e-06)
(2.27649e-06 2.79512e-06 -7.16084e-06)
(-4.09679e-07 -1.65347e-06 -7.05258e-06)
(1.32366e-06 -1.16134e-08 -1.10189e-05)
(-3.25471e-06 -1.84894e-07 -6.87824e-06)
(-3.31944e-06 9.19816e-08 -6.85713e-06)
(6.72887e-06 -5.67615e-08 -6.23247e-06)
(-2.89162e-07 -2.68943e-09 -8.51695e-06)
(-3.08786e-07 1.54044e-08 -8.49742e-06)
(7.7289e-08 2.468e-08 -5.55134e-06)
(4.82809e-07 1.94226e-09 -5.55003e-06)
(2.35488e-06 2.84559e-06 -7.17855e-06)
(-3.42069e-07 -1.64665e-06 -7.03102e-06)
(6.47096e-08 7.96708e-09 -6.51573e-06)
(-4.08956e-07 1.97874e-06 -7.14919e-06)
(1.26953e-06 -3.04886e-07 -1.10093e-05)
(-3.30969e-06 -1.32145e-07 -6.92316e-06)
(-3.26435e-06 1.14416e-07 -6.84953e-06)
(6.68785e-06 -1.12116e-07 -6.24781e-06)
(-2.14536e-07 1.656e-06 -7.02339e-06)
(1.82955e-06 -2.8028e-06 -7.15056e-06)
(3.79224e-08 1.75371e-08 -6.56908e-06)
(5.35165e-08 1.23856e-08 -6.56678e-06)
(2.94245e-08 3.49787e-08 -5.90752e-06)
(1.56096e-08 1.87605e-08 -4.44688e-06)
(5.91101e-09 7.58681e-09 -3.21057e-06)
(1.28355e-09 2.14723e-09 -2.21429e-06)
(-5.06366e-10 -7.59953e-11 -1.46296e-06)
(-1.20748e-09 -1.02759e-09 -9.33571e-07)
(-1.36469e-09 -1.3566e-09 -5.95559e-07)
(8.23544e-10 8.53058e-10 -4.68019e-07)
(-7.26728e-10 -7.25564e-10 -4.03344e-07)
(3.79099e-08 -3.97438e-08 -2.90396e-07)
(-4.23919e-08 -4.26191e-08 -2.90099e-07)
(4.25072e-08 -4.27365e-08 -2.899e-07)
(-3.7813e-08 -3.9727e-08 -2.90121e-07)
(2.06828e-10 9.88531e-09 -4.50598e-07)
(3.7708e-08 1.26287e-08 -3.0792e-07)
(-3.50237e-08 7.1689e-09 -3.09061e-07)
(3.88018e-12 -5.18473e-08 -3.00515e-07)
(-4.18206e-08 2.43773e-08 -3.43786e-07)
(8.22909e-11 -5.23169e-08 -5.06011e-07)
(-3.74621e-08 1.25681e-08 -3.07966e-07)
(1.00098e-10 9.90639e-09 -4.50817e-07)
(3.52063e-08 7.278e-09 -3.093e-07)
(1.42439e-09 -5.16893e-08 -5.02845e-07)
(3.89286e-08 1.66111e-08 -3.49887e-07)
(-3.28571e-09 4.8877e-08 -4.53184e-07)
(-4.23655e-08 3.04981e-08 -3.35128e-07)
(5.97549e-11 -5.18546e-08 -3.00731e-07)
(4.18558e-08 2.44618e-08 -3.43889e-07)
(-1.34612e-12 5.30927e-08 -4.53294e-07)
(4.98956e-11 7.43626e-08 -2.45318e-07)
(7.72882e-08 8.06449e-08 -3.40348e-07)
(-1.44379e-07 -1.46461e-07 -3.5594e-07)
(1.44519e-07 -1.46266e-07 -3.55556e-07)
(-1.42384e-07 -1.57001e-07 -3.71759e-07)
(1.76131e-07 1.34508e-07 -5.06244e-07)
(-2.17481e-07 -1.97889e-07 -5.90086e-07)
(2.84077e-07 2.28979e-07 -7.54001e-07)
(-3.54234e-07 -3.04722e-07 -9.33548e-07)
(4.55503e-07 3.74023e-07 -1.1885e-06)
(-5.65109e-07 -4.79164e-07 -1.47438e-06)
(7.13288e-07 5.9002e-07 -1.84997e-06)
(-8.69665e-07 -7.38183e-07 -2.25769e-06)
(1.0775e-06 8.90352e-07 -2.78007e-06)
(-1.28264e-06 -1.10327e-06 -3.31754e-06)
(1.56317e-06 1.28128e-06 -4.01073e-06)
(-1.80555e-06 -1.59349e-06 -4.6662e-06)
(2.16428e-06 1.75787e-06 -5.53505e-06)
(-2.38774e-06 -2.19464e-06 -6.27704e-06)
(2.81222e-06 2.27484e-06 -7.21112e-06)
(-1.63637e-06 -4.10695e-07 -6.96806e-06)
(4.12613e-08 1.40694e-06 -1.10241e-05)
(1.65873e-06 -2.41321e-07 -7.09603e-06)
(4.82548e-08 4.78029e-08 -6.57295e-06)
(-2.73814e-06 1.96986e-06 -7.12791e-06)
(2.32742e-06 -2.01968e-06 -6.32653e-06)
(1.39573e-08 1.092e-07 -4.92607e-06)
(-2.09794e-06 1.59357e-06 -5.50945e-06)
(1.76931e-06 -1.50609e-06 -4.68993e-06)
(8.50661e-09 7.64616e-08 -3.6273e-06)
(-1.51481e-06 1.1869e-06 -4.00178e-06)
(1.25962e-06 -1.04969e-06 -3.32895e-06)
(5.18104e-09 5.47941e-08 -2.54497e-06)
(-1.04425e-06 8.32984e-07 -2.77765e-06)
(8.54061e-07 -7.01512e-07 -2.26291e-06)
(3.0542e-09 3.87247e-08 -1.70998e-06)
(-6.91217e-07 5.53522e-07 -1.84971e-06)
(5.54641e-07 -4.54327e-07 -1.4769e-06)
(1.88549e-09 2.59359e-08 -1.10451e-06)
(-4.40985e-07 3.49326e-07 -1.18873e-06)
(3.47694e-07 -2.88381e-07 -9.34919e-07)
(1.34447e-09 1.60581e-08 -6.94989e-07)
(-2.74175e-07 2.10421e-07 -7.54593e-07)
(2.14711e-07 -1.87112e-07 -5.89069e-07)
(9.58964e-10 1.56887e-08 -4.44424e-07)
(-1.69192e-07 1.18079e-07 -5.11427e-07)
(2.62758e-10 -1.14708e-08 -3.85717e-07)
(1.6966e-07 1.18081e-07 -5.11143e-07)
(-2.14038e-07 -1.8709e-07 -5.89466e-07)
(-6.81074e-10 1.57029e-08 -4.44549e-07)
(-1.75436e-07 1.35087e-07 -5.06684e-07)
(1.42556e-07 -1.56303e-07 -3.7193e-07)
(-3.14458e-10 5.94394e-08 -4.05496e-07)
(-7.78166e-08 9.38848e-08 -3.29369e-07)
(-5.05727e-09 6.79787e-08 -2.48065e-07)
(7.89548e-08 6.52785e-08 -3.55019e-07)
(-1.49588e-07 -1.37387e-07 -3.3759e-07)
(1.68988e-07 1.07009e-07 -5.12104e-07)
(-2.14307e-07 -1.78106e-07 -5.89339e-07)
(2.70382e-07 2.0149e-07 -7.53059e-07)
(-3.42482e-07 -2.73497e-07 -9.36499e-07)
(4.35714e-07 3.38128e-07 -1.18975e-06)
(-5.43175e-07 -4.31682e-07 -1.47805e-06)
(6.84691e-07 5.37421e-07 -1.85581e-06)
(-8.33938e-07 -6.68577e-07 -2.26341e-06)
(1.03868e-06 8.11169e-07 -2.79238e-06)
(-1.22754e-06 -1.00713e-06 -3.32682e-06)
(1.51776e-06 1.1662e-06 -4.03873e-06)
(-1.71924e-06 -1.45854e-06 -4.66695e-06)
(2.12161e-06 1.59427e-06 -5.59775e-06)
(-2.24123e-06 -1.949e-06 -6.22767e-06)
(2.76772e-06 2.00127e-06 -7.25415e-06)
(-1.61715e-06 -2.2864e-07 -7.01533e-06)
(-3.98296e-07 1.05249e-06 -1.09025e-05)
(6.79698e-07 -8.34495e-07 -7.45903e-06)
(7.57203e-08 9.03802e-08 -6.37455e-06)
(-2.57733e-06 2.76743e-06 -7.78744e-06)
(2.04115e-06 -2.84463e-06 -6.84892e-06)
(1.65963e-08 1.39639e-07 -4.7896e-06)
(-1.91719e-06 2.30717e-06 -5.9873e-06)
(1.59649e-06 -2.05339e-06 -5.04139e-06)
(-6.9265e-09 8.91665e-08 -3.52247e-06)
(-1.34111e-06 1.69366e-06 -4.32395e-06)
(1.12686e-06 -1.39749e-06 -3.55836e-06)
(-1.0451e-08 5.85964e-08 -2.46551e-06)
(-9.17189e-07 1.17239e-06 -2.98987e-06)
(7.58272e-07 -9.27538e-07 -2.41212e-06)
(-8.74123e-09 3.99831e-08 -1.65455e-06)
(-6.07413e-07 7.7934e-07 -1.98834e-06)
(4.92696e-07 -5.9921e-07 -1.57242e-06)
(-7.67703e-09 2.62984e-08 -1.06801e-06)
(-3.87777e-07 4.98695e-07 -1.27483e-06)
(3.11876e-07 -3.78215e-07 -9.93954e-07)
(-6.97269e-09 1.66264e-08 -6.71751e-07)
(-2.41057e-07 3.09115e-07 -8.06043e-07)
(1.96182e-07 -2.43761e-07 -6.29708e-07)
(-7.25608e-09 1.66432e-08 -4.28964e-07)
(-1.48782e-07 1.81238e-07 -5.3774e-07)
(1.16745e-07 -1.7427e-07 -3.95064e-07)
(1.24733e-09 5.87962e-08 -3.94486e-07)
(-3.90751e-08 1.31339e-07 -3.41829e-07)
(6.49699e-08 1.14862e-07 -3.52108e-07)
(1.07682e-07 -5.73939e-08 -3.15486e-07)
(-3.61383e-09 1.26184e-07 -4.01391e-07)
(1.14858e-08 -2.88147e-08 -2.55709e-07)
(-1.9943e-08 1.75956e-08 -2.92393e-07)
(6.03153e-08 1.4335e-07 -3.53964e-07)
(-1.86702e-07 -1.25609e-07 -3.29812e-07)
(1.66196e-07 1.35945e-07 -5.21058e-07)
(-2.49577e-07 -1.56329e-07 -6.10385e-07)
(-1.6814e-07 2.51036e-07 -5.90421e-07)
(-2.09611e-07 -2.22099e-07 -5.89201e-07)
(1.6556e-08 -2.12478e-09 -4.41838e-07)
(1.15411e-07 -2.05156e-07 -5.0537e-07)
(1.28618e-07 1.75597e-07 -5.14363e-07)
(-1.57456e-07 -1.53622e-07 -3.43134e-07)
(5.70045e-08 3.68814e-09 -4.05534e-07)
(-1.39515e-07 1.59952e-07 -3.78932e-07)
(-1.30827e-08 6.5068e-09 -3.86424e-07)
(4.84136e-09 9.54063e-10 -3.772e-07)
(-5.23034e-08 -4.209e-08 -4.84837e-07)
(4.18352e-09 3.88414e-09 -3.73774e-07)
(-2.21825e-09 -3.32128e-09 -3.55216e-07)
(-5.38946e-08 2.23327e-09 -5.01552e-07)
(4.41892e-10 -1.16612e-09 -4.10609e-07)
(-1.25799e-08 -5.39643e-10 -3.86211e-07)
(-1.43338e-07 1.47678e-07 -3.68138e-07)
(-1.55528e-07 -1.47915e-07 -3.58067e-07)
(1.32094e-07 1.73747e-07 -5.11562e-07)
(-2.03701e-07 -2.17784e-07 -5.89317e-07)
(-7.79718e-09 3.65028e-10 -5.54108e-07)
(2.33518e-07 2.81092e-07 -7.55108e-07)
(-3.17123e-07 -3.52829e-07 -9.35057e-07)
(3.87413e-07 4.52602e-07 -1.18928e-06)
(-5.00823e-07 -5.62589e-07 -1.47686e-06)
(-2.67066e-08 1.79548e-09 -1.36056e-06)
(6.14832e-07 7.10474e-07 -1.85126e-06)
(-7.73535e-07 -8.65239e-07 -2.26138e-06)
(9.28928e-07 1.07526e-06 -2.78219e-06)
(-1.15736e-06 -1.27412e-06 -3.32255e-06)
(-5.64975e-09 3.98836e-09 -3.00024e-06)
(1.3338e-06 1.56157e-06 -4.01285e-06)
(-1.6625e-06 -1.78718e-06 -4.67148e-06)
(1.81195e-06 2.15805e-06 -5.53053e-06)
(-2.24551e-06 -2.35185e-06 -6.28935e-06)
(4.65206e-07 -4.058e-09 -5.55141e-06)
(7.62667e-08 4.21546e-09 -5.55235e-06)
(1.73309e-08 6.73557e-09 -4.18207e-06)
(2.20067e-08 1.91901e-08 -4.18693e-06)
(-1.53172e-08 9.66686e-09 -3.01895e-06)
(-2.34822e-09 1.00086e-08 -3.0097e-06)
(1.38354e-06 1.5783e-06 -4.03435e-06)
(-1.70674e-06 -1.78676e-06 -4.67706e-06)
(8.49358e-08 8.12654e-09 -3.62916e-06)
(-1.38453e-06 2.12361e-06 -4.72729e-06)
(1.36665e-06 -2.46411e-06 -5.5014e-06)
(1.89213e-06 2.20151e-06 -5.57435e-06)
(-2.2542e-06 -2.32985e-06 -6.26011e-06)
(1.32666e-07 2.17322e-08 -4.92246e-06)
(-1.98235e-06 2.84464e-06 -6.40447e-06)
(1.61832e-06 -3.10639e-06 -7.06866e-06)
(3.25059e-06 1.99658e-06 -7.98115e-06)
(-2.698e-07 -1.51542e-06 -6.84518e-06)
(1.63154e-07 -2.81717e-06 -1.10729e-05)
(-3.56898e-06 -2.17807e-07 -7.08883e-06)
(-3.31738e-06 2.61792e-10 -6.72165e-06)
(6.39659e-06 -1.01087e-06 -6.45545e-06)
(-4.34542e-07 -2.72555e-07 -8.31581e-06)
(6.35557e-08 4.10823e-08 -5.26998e-06)
(1.15383e-07 1.46602e-06 -4.79163e-06)
(-1.52243e-06 1.79652e-06 -6.59959e-06)
(2.97646e-07 1.16156e-07 -4.07042e-06)
(8.79751e-07 -2.39188e-06 -5.52155e-06)
(-9.14581e-07 1.59212e-06 -4.77448e-06)
(5.956e-08 -4.37215e-09 -2.93945e-06)
(6.81273e-07 -1.43463e-06 -4.02016e-06)
(-6.06602e-07 1.13308e-06 -3.32771e-06)
(1.66991e-09 -2.02261e-08 -2.04534e-06)
(4.53333e-07 -9.25481e-07 -2.79595e-06)
(-4.2012e-07 7.73911e-07 -2.25163e-06)
(-5.79439e-09 -1.39772e-08 -1.37175e-06)
(2.80869e-07 -5.89256e-07 -1.8522e-06)
(-2.69595e-07 5.02321e-07 -1.45418e-06)
(-1.01038e-08 -1.32729e-08 -8.84305e-07)
(1.86565e-07 -3.75215e-07 -1.18834e-06)
(-1.66183e-07 3.28462e-07 -9.15318e-07)
(-1.22755e-08 -1.1404e-08 -5.56142e-07)
(1.23832e-07 -2.23887e-07 -7.43406e-07)
(-8.67873e-08 2.13377e-07 -5.7738e-07)
(-1.25746e-08 -1.53188e-08 -3.57605e-07)
(1.01666e-07 -1.33433e-07 -4.86579e-07)
(3.52051e-08 3.28727e-08 -3.40827e-07)
(2.47084e-08 5.45604e-08 -3.27342e-07)
(-4.2476e-09 -8.61664e-08 -4.46951e-07)
(-2.09541e-09 -5.24871e-09 -4.23254e-07)
(5.4054e-08 1.54889e-07 -5.19211e-07)
(-2.26468e-08 -1.78684e-07 -6.81503e-07)
(2.89939e-07 2.01994e-07 -7.64001e-07)
(-3.86021e-07 -2.5e-07 -9.63802e-07)
(4.81073e-07 3.19879e-07 -1.21444e-06)
(-6.10317e-07 -3.97641e-07 -1.51988e-06)
(-3.94299e-07 6.44741e-07 -1.47469e-06)
(-5.14524e-07 -5.66294e-07 -1.48028e-06)
(2.61863e-08 -2.73105e-09 -1.10193e-06)
(3.16323e-07 -5.19521e-07 -1.19172e-06)
(3.97974e-07 4.52626e-07 -1.19091e-06)
(-3.25406e-07 -3.56392e-07 -9.37394e-07)
(1.63733e-08 -2.83852e-09 -6.92996e-07)
(-2.50362e-07 4.04257e-07 -9.3188e-07)
(-1.22519e-08 1.86286e-09 -8.67657e-07)
(-6.12719e-09 -7.17957e-09 -8.30338e-07)
(-1.85272e-09 -4.00942e-09 -5.27609e-07)
(-5.71842e-09 -1.27733e-08 -4.6167e-07)
(-9.22359e-09 -3.0031e-08 -5.52601e-07)
(1.24803e-08 2.82194e-09 -5.19071e-07)
(8.05934e-09 1.06167e-08 -4.95988e-07)
(-4.35636e-10 2.2165e-09 -5.87075e-07)
(-5.08053e-08 9.4065e-09 -5.94823e-07)
(-1.58008e-08 1.12209e-08 -4.12569e-07)
(6.46011e-08 5.77394e-09 -3.54882e-07)
(9.29752e-08 -7.78106e-09 -2.57463e-07)
(7.91801e-08 1.24351e-07 -4.30503e-07)
(2.79067e-08 3.95896e-08 -2.42418e-07)
(1.3312e-07 7.21589e-09 -3.48543e-07)
(4.82059e-08 3.13182e-08 -4.03776e-07)
(4.38695e-08 -1.06891e-09 -4.73137e-07)
(3.70895e-08 -1.32359e-08 -7.24843e-07)
(-3.14488e-08 -9.24361e-09 -9.27264e-07)
(-8.01109e-08 1.07217e-08 -9.24946e-07)
(-1.18723e-07 1.58131e-08 -1.44564e-06)
(-5.91512e-08 -1.55741e-08 -1.46271e-06)
(4.28871e-08 -2.53298e-08 -1.14659e-06)
(-5.0849e-08 -2.97612e-07 -1.08663e-06)
(6.93588e-09 -1.4195e-08 -1.06181e-06)
(9.63833e-08 3.55513e-07 -1.33234e-06)
(-8.59678e-08 -4.71465e-07 -1.68829e-06)
(7.62333e-07 4.99417e-07 -1.90386e-06)
(-9.42546e-07 -6.11443e-07 -2.32631e-06)
(1.15669e-06 7.59847e-07 -2.87148e-06)
(-1.41999e-06 -9.02904e-07 -3.42116e-06)
(-9.28832e-07 1.483e-06 -3.33862e-06)
(-1.19213e-06 -1.27849e-06 -3.33127e-06)
(5.71268e-08 5.96587e-10 -2.54357e-06)
(7.38293e-07 -1.22431e-06 -2.78805e-06)
(9.59366e-07 1.0802e-06 -2.79174e-06)
(-7.95871e-07 -8.69573e-07 -2.26685e-06)
(3.94711e-08 -1.98301e-09 -1.70742e-06)
(-6.12175e-07 9.9608e-07 -2.26398e-06)
(-1.9915e-08 7.00819e-09 -2.06999e-06)
(-7.28379e-09 -9.75274e-09 -1.97261e-06)
(-8.47295e-09 -9.33109e-09 -1.30149e-06)
(-1.16809e-08 5.34813e-09 -1.14745e-06)
(-2.8895e-08 -8.97417e-08 -1.35618e-06)
(-5.42576e-10 -4.31998e-08 -1.32438e-06)
(-7.57822e-09 -3.05744e-08 -1.26443e-06)
(-1.92661e-08 -5.76078e-08 -8.64557e-07)
(1.20312e-09 -2.16764e-08 -8.20231e-07)
(-1.5986e-09 -1.56709e-08 -7.8484e-07)
(6.95788e-08 2.28688e-07 -8.36082e-07)
(3.9806e-09 -8.47933e-09 -6.6605e-07)
(-8.87065e-09 -6.14234e-09 -7.29353e-07)
(-1.18081e-09 2.78527e-08 -7.42732e-07)
(2.17009e-09 -5.27458e-08 -6.00531e-07)
(9.83412e-10 -1.71126e-08 -4.15712e-07)
(-3.77842e-09 7.16432e-08 -3.54879e-07)
(8.15336e-09 1.3379e-07 -3.46639e-07)
(-9.39542e-08 2.42242e-07 -3.25677e-07)
(-5.23016e-09 1.47368e-08 -3.7786e-07)
(-2.27669e-09 -2.00443e-09 -3.154e-07)
(-6.98991e-10 1.39242e-08 -4.81768e-07)
(-1.25941e-09 4.92437e-09 -4.79305e-07)
(2.18332e-07 -1.96904e-07 -5.90154e-07)
(1.04931e-09 -8.68042e-09 -5.52367e-07)
(-2.82984e-07 2.30412e-07 -7.54354e-07)
(2.75269e-07 2.10252e-07 -7.54439e-07)
(-3.46136e-07 -2.87926e-07 -9.35159e-07)
(-4.81213e-10 1.61107e-08 -6.95318e-07)
(3.56381e-07 -3.04128e-07 -9.34149e-07)
(2.17776e-09 -1.57618e-08 -8.66657e-07)
(-4.53687e-07 3.7592e-07 -1.18885e-06)
(4.43473e-07 3.49386e-07 -1.18926e-06)
(-5.51517e-07 -4.53184e-07 -1.47655e-06)
(2.86382e-10 2.60885e-08 -1.1053e-06)
(5.69533e-07 -4.80223e-07 -1.47673e-06)
(3.64729e-09 -2.42566e-08 -1.35844e-06)
(-7.10105e-07 5.91162e-07 -1.85037e-06)
(6.96381e-07 5.54825e-07 -1.85221e-06)
(-8.48171e-07 -6.99679e-07 -2.26084e-06)
(1.67944e-09 3.90647e-08 -1.71171e-06)
(8.78172e-07 -7.43058e-07 -2.26365e-06)
(5.98272e-09 -2.40807e-08 -2.06061e-06)
(-1.0724e-06 8.87777e-07 -2.78005e-06)
(1.0541e-06 8.38024e-07 -2.78463e-06)
(-1.24919e-06 -1.04821e-06 -3.32191e-06)
(4.32221e-09 5.56003e-08 -2.54821e-06)
(1.29798e-06 -1.11658e-06 -3.33088e-06)
(8.58891e-09 9.76794e-09 -2.99901e-06)
(-1.55555e-06 1.26355e-06 -4.00595e-06)
(1.53148e-06 1.20349e-06 -4.01937e-06)
(-1.75234e-06 -1.51151e-06 -4.66839e-06)
(9.35392e-09 7.81848e-08 -3.63197e-06)
(1.82766e-06 -1.61757e-06 -4.69453e-06)
(5.29819e-09 1.45125e-07 -4.17789e-06)
(-2.15108e-06 1.68726e-06 -5.50914e-06)
(2.11898e-06 1.64259e-06 -5.5471e-06)
(-2.30629e-06 -2.05765e-06 -6.27572e-06)
(1.52235e-08 1.11996e-07 -4.92731e-06)
(2.39768e-06 -2.19728e-06 -6.32846e-06)
(-1.83513e-08 5.57006e-07 -5.53727e-06)
(-2.78618e-06 2.08671e-06 -7.12788e-06)
(2.74716e-06 2.08646e-06 -7.19449e-06)
(-1.64455e-06 -3.06205e-07 -7.04502e-06)
(-3.70211e-09 4.91912e-08 -6.56147e-06)
(1.63091e-06 -3.71567e-07 -7.04847e-06)
(-1.14335e-07 6.69367e-06 -6.28264e-06)
(-2.69773e-07 -3.26978e-06 -6.89648e-06)
(-2.15147e-07 -3.37653e-06 -6.64976e-06)
(-3.23996e-07 4.99867e-06 -6.01189e-06)
(-3.25969e-06 1.31837e-06 -8.23613e-06)
(6.87597e-07 4.68811e-07 -5.43228e-06)
(4.58032e-07 -3.93068e-06 -7.0241e-06)
(-2.52496e-07 -9.1774e-07 -5.32897e-06)
(-5.07651e-07 -5.567e-07 -5.09915e-06)
(-1.70131e-07 1.69765e-06 -6.19496e-06)
(-2.64822e-06 -1.78139e-06 -6.19451e-06)
(6.042e-07 -3.40834e-08 -5.5817e-06)
(-1.06076e-06 7.77601e-08 -5.97619e-06)
(-1.4427e-06 -3.29195e-07 -6.02973e-06)
(-2.87334e-07 -3.71891e-07 -5.28964e-06)
(-4.35182e-07 -7.56762e-08 -4.58936e-06)
(-5.65049e-07 9.98995e-08 -4.49849e-06)
(-3.03267e-07 5.45203e-08 -3.20447e-06)
(-1.61903e-07 -2.25459e-08 -3.26794e-06)
(7.72745e-08 -6.26163e-08 -2.65449e-06)
(-9.13939e-08 -2.07328e-08 -2.22911e-06)
(-1.81417e-07 2.75908e-08 -2.19365e-06)
(-1.69156e-07 7.65153e-09 -2.17736e-06)
(-1.1037e-07 3.90378e-09 -1.43893e-06)
(-7.77815e-08 1.70417e-09 -9.24233e-07)
(-5.39951e-08 -2.31417e-10 -5.96237e-07)
(-1.60952e-08 -1.75082e-09 -4.12091e-07)
(7.68554e-08 -6.64433e-09 -3.52073e-07)
(8.06759e-08 -3.23154e-09 -2.49321e-07)
(8.10656e-08 8.18001e-08 -3.51476e-07)
(9.32441e-08 -8.18199e-08 -3.10714e-07)
(1.2357e-07 7.2794e-10 -3.48557e-07)
(1.17963e-07 5.83906e-10 -3.51081e-07)
(8.6225e-08 -8.33223e-08 -3.3213e-07)
(8.68504e-08 8.20667e-08 -3.43101e-07)
(5.92951e-08 -2.00963e-10 -4.06437e-07)
(-5.21733e-08 3.16069e-10 -3.00059e-07)
(1.64284e-08 -3.25253e-10 -3.68359e-07)
(-5.95588e-09 -6.15625e-09 -3.5331e-07)
(-4.13822e-09 -3.91308e-09 -3.55306e-07)
(1.49232e-08 1.48772e-08 -3.70994e-07)
(-4.54574e-08 9.8064e-10 -2.92144e-07)
(-9.44997e-11 1.70986e-08 -3.67151e-07)
(-3.37616e-11 -6.01101e-09 -3.56217e-07)
(-9.58432e-11 -7.41764e-09 -3.56475e-07)
(1.00576e-10 -2.36154e-10 -4.06697e-07)
(-2.89817e-08 2.81921e-08 -2.85059e-07)
(-3.33856e-08 -3.32231e-08 -2.87575e-07)
(-3.32103e-08 3.36518e-08 -2.87125e-07)
(-2.92151e-08 -2.77789e-08 -2.85645e-07)
(2.92113e-08 -2.82403e-08 -2.84823e-07)
(-2.39174e-08 -2.36238e-08 -2.82915e-07)
(1.12887e-09 1.12457e-09 -4.55713e-07)
(3.36066e-08 3.34671e-08 -2.86713e-07)
(-2.80773e-08 2.9582e-08 -2.85422e-07)
(-2.8082e-08 -2.92624e-08 -2.85488e-07)
(1.1498e-09 -8.13855e-10 -4.55917e-07)
(3.33803e-08 -3.34338e-08 -2.8714e-07)
(8.67579e-11 1.00092e-10 -4.09944e-07)
(1.91591e-10 2.18269e-10 -4.73375e-07)
(2.11098e-10 1.22672e-09 -4.70464e-07)
(1.89796e-10 5.77622e-10 -4.11111e-07)
(-1.36735e-09 1.73615e-10 -4.09622e-07)
(9.59742e-10 -1.46677e-08 -3.83792e-07)
(-5.09088e-10 -7.51178e-09 -5.56155e-07)
(-2.27477e-10 -1.39522e-08 -8.74816e-07)
(7.15247e-10 -1.97703e-08 -1.37078e-06)
(2.79879e-09 -2.20262e-08 -2.07552e-06)
(7.04434e-09 -1.15561e-08 -3.01213e-06)
(4.41016e-09 -4.67203e-09 -2.86659e-06)
(-7.15811e-09 1.00545e-07 -2.54883e-06)
(-4.72724e-08 -2.33157e-07 -3.00349e-06)
(2.49245e-08 -9.98608e-08 -2.93826e-06)
(-2.93159e-08 -2.31563e-08 -2.80563e-06)
(1.8814e-07 8.61977e-07 -3.04583e-06)
(-2.63499e-07 -9.98358e-07 -3.67296e-06)
(1.70279e-06 1.1159e-06 -4.18608e-06)
(-2.05731e-06 -1.29964e-06 -4.77079e-06)
(2.44043e-06 1.56275e-06 -5.93137e-06)
(-2.30282e-08 -6.89574e-08 -4.92718e-06)
(-6.95499e-07 -1.4587e-06 -4.98842e-06)
(-1.3233e-07 -5.68717e-08 -3.88467e-06)
(1.93484e-07 1.30705e-06 -4.38527e-06)
(5.72017e-09 -3.46363e-08 -3.55298e-06)
(5.81507e-08 -1.29992e-07 -3.82591e-06)
(9.27927e-08 2.14278e-08 -3.8845e-06)
(-2.83836e-07 1.51496e-08 -3.16986e-06)
(-5.12066e-07 2.94905e-08 -4.42654e-06)
(-9.91814e-07 3.46164e-08 -5.92322e-06)
(-2.30026e-06 -3.09767e-08 -7.70193e-06)
(-2.36798e-06 -3.75503e-07 -7.67918e-06)
(-5.40878e-06 1.29101e-06 -7.71818e-06)
(-2.20169e-06 -6.17524e-07 -6.55094e-06)
(-1.8788e-06 -2.16445e-06 -6.03216e-06)
(-3.33066e-08 -3.34444e-07 -6.37051e-06)
(-7.2602e-07 -4.05503e-07 -7.08264e-06)
(6.72958e-07 -5.07978e-06 -6.01023e-06)
(-4.74979e-06 -1.43742e-06 -6.87235e-06)
(-2.89548e-06 1.86769e-07 -9.94403e-06)
(-1.40556e-06 -2.14422e-06 -8.97345e-06)
(2.07787e-06 1.54955e-06 -8.73657e-06)
(1.66188e-07 7.74559e-08 -9.03563e-06)
(8.91393e-08 6.94325e-08 -5.74863e-06)
(-2.12598e-06 1.87233e-06 -7.3238e-06)
(2.23891e-06 1.567e-06 -7.68051e-06)
(1.49736e-08 2.01054e-07 -9.23246e-06)
(-2.77469e-07 -1.80789e-07 -5.91097e-06)
(-2.31994e-06 2.05896e-06 -7.57297e-06)
(2.2464e-06 1.85246e-06 -7.71202e-06)
(4.55674e-09 2.13108e-07 -9.27643e-06)
(-3.06623e-07 -2.15637e-07 -5.93655e-06)
(-2.26514e-06 1.87361e-06 -7.47887e-06)
(2.23989e-06 2.10784e-06 -7.81099e-06)
(1.82206e-08 1.9899e-07 -9.25916e-06)
(-4.92454e-07 -4.83212e-07 -6.08125e-06)
(-2.16235e-06 1.56271e-06 -7.41887e-06)
(1.5989e-06 2.13554e-06 -8.32983e-06)
(-1.37204e-06 -7.6243e-07 -1.15598e-05)
(1.19181e-06 1.23257e-06 -9.21826e-06)
(9.09098e-07 -1.07031e-06 -9.01749e-06)
(2.57694e-06 1.14475e-06 -1.14365e-05)
(-1.21189e-06 -4.48838e-06 -1.12201e-05)
(-6.74183e-07 -2.42466e-06 -8.90424e-06)
(3.79239e-07 3.8933e-07 -6.50537e-06)
(1.4624e-06 -1.10994e-06 -9.13346e-06)
(-4.45321e-06 2.12878e-06 -8.04354e-06)
(-2.17301e-07 -1.34e-07 -7.12735e-06)
(-2.58646e-06 -3.45092e-06 -7.58755e-06)
(2.50419e-06 1.98524e-06 -8.12168e-06)
(2.40698e-06 -3.73396e-08 -6.41537e-06)
(2.21159e-06 -2.34302e-06 -8.43064e-06)
(2.79534e-06 -2.33191e-06 -9.67157e-06)
(1.23932e-06 -3.34935e-06 -6.51665e-06)
(1.98556e-07 1.13523e-06 -7.74142e-06)
(1.01525e-06 -1.75433e-06 -6.29309e-06)
(1.48211e-06 -1.17711e-06 -6.52929e-06)
(2.33179e-06 1.82324e-06 -8.33705e-06)
(-8.07623e-07 -3.2068e-06 -7.07244e-06)
(2.04628e-07 -4.77486e-07 -5.29541e-06)
(1.36499e-06 2.02987e-06 -6.43897e-06)
(-8.73132e-07 -2.07214e-06 -5.46435e-06)
(1.37834e-08 -1.63788e-07 -4.03606e-06)
(8.88404e-07 1.58813e-06 -4.69499e-06)
(-6.48489e-07 -1.35872e-06 -3.98639e-06)
(1.81938e-10 -8.62464e-08 -2.88971e-06)
(6.11786e-07 1.12783e-06 -3.3046e-06)
(-4.33635e-07 -9.02764e-07 -2.77404e-06)
(2.54624e-09 -6.31194e-08 -1.98657e-06)
(4.15413e-07 7.6187e-07 -2.23765e-06)
(-2.81782e-07 -5.92324e-07 -1.84952e-06)
(2.38496e-09 -4.57054e-08 -1.30782e-06)
(2.72188e-07 4.97055e-07 -1.45823e-06)
(-1.80106e-07 -3.77745e-07 -1.18659e-06)
(3.82168e-10 -2.78192e-08 -8.33317e-07)
(1.68627e-07 3.16591e-07 -9.20117e-07)
(-1.20639e-07 -2.36383e-07 -7.47105e-07)
(-6.62032e-09 -6.97701e-09 -5.16511e-07)
(9.36308e-08 2.07861e-07 -5.83951e-07)