/*--------------------------------*- C++ -*----------------------------------*\
| =========                 |                                                 |
| \\      /  F ield         | OpenFOAM: The Open Source CFD Toolbox           |
|  \\    /   O peration     | Version:  2306                                  |
|   \\  /    A nd           | Website:  www.openfoam.com                      |
|    \\/     M anipulation  |                                                 |
\*---------------------------------------------------------------------------*/
FoamFile
{
    version     2.0;
    format      ascii;
    arch        "LSB;label=32;scalar=64";
    class       volVectorField;
    location    "1.9";
    object      flux;
}
// * * * * * * * * * * * * * * * * * * * * * * * * * * * * * * * * * * * * * //

dimensions      [0 1 -1 1 0 0 0];

internalField   nonuniform List<vector> 
5322
(
(-0.00100649 0.00260025 -0.00348799)
(2.28683e-05 0.000244233 -0.00356094)
(2.7906e-05 -1.78003e-05 -0.00367642)
(3.20082e-06 -0.000109261 -0.00398536)
(-5.04906e-07 -6.05711e-05 -0.00395427)
(-6.63101e-07 -2.15038e-05 -0.003943)
(3.88289e-08 -7.51883e-07 -0.00393973)
(5.45515e-07 1.92857e-05 -0.00394308)
(3.35723e-07 5.66295e-05 -0.00395457)
(-8.15987e-07 0.000103394 -0.00398704)
(-4.02484e-06 9.33244e-07 -0.00394162)
(4.40074e-05 -0.00077036 -0.00395283)
(6.77894e-05 -0.000856213 -0.00297481)
(-0.000933634 -0.000768557 -0.00410128)
(-2.47324e-05 -0.000667173 -0.00448462)
(0.00162487 0.00144388 -0.00357988)
(-0.00127679 0.00193133 -0.00423168)
(-2.01449e-05 -2.97501e-06 -0.00316801)
(-0.000974145 0.00133362 -0.0044604)
(0.000627916 -0.00158104 -0.00450107)
(-0.000853701 0.00150365 -0.00452938)
(0.000742465 -0.00152751 -0.00450896)
(-0.000785295 0.00149838 -0.00451099)
(0.000789484 -0.00153347 -0.00453471)
(-0.000799655 0.0015281 -0.00453425)
(0.000768035 -0.00149901 -0.00450915)
(-0.000769662 0.0014975 -0.00451051)
(0.000798312 -0.0015287 -0.00453144)
(-0.00078637 0.00152437 -0.00453286)
(0.000786434 -0.00150567 -0.00451031)
(-0.000746229 0.00151497 -0.00450922)
(0.000847561 -0.00151494 -0.00451767)
(-0.000636717 0.00156427 -0.00448636)
(0.000970149 -0.00134379 -0.00441473)
(1.37446e-05 0.00128905 -0.00419729)
(0.00121727 -0.000644342 -0.00344577)
(0.000858187 0.00126585 -0.00391923)
(-0.00034223 0.00158904 -0.00399441)
(0.00096198 0.000793688 -0.00412319)
(-5.52313e-05 0.000859308 -0.0029036)
(-0.000912321 0.00117276 -0.00383437)
(0.000917455 0.000979489 -0.00395714)
(-5.55424e-05 0.00101384 -0.00285154)
(-0.000976116 0.00109468 -0.00396299)
(0.000970051 0.00104366 -0.00392424)
(-3.33814e-05 0.00103331 -0.0028989)
(-0.00103751 0.0010603 -0.00401789)
(0.000906012 0.00113275 -0.00379262)
(-2.29095e-05 0.00104947 -0.00286027)
(-0.00108739 0.00100226 -0.00392831)
(-0.00107275 0.00125733 -0.0043995)
(-0.00155796 0.000608834 -0.00315717)
(-0.000486609 0.000681523 -0.00429648)
(0.00104482 -0.00224649 -0.00403674)
(-6.66186e-05 -0.000122606 -0.003785)
(-0.00172538 -0.00129992 -0.00383793)
(-4.90148e-05 0.000683247 -0.00455252)
(0.00164894 -0.00170478 -0.00377846)
(-1.97852e-05 -9.7062e-05 -0.00382463)
(-0.00164774 -0.00148166 -0.00384201)
(-7.10329e-06 0.000693765 -0.00460805)
(0.00160587 -0.00167652 -0.00382938)
(-9.27687e-06 -8.66602e-05 -0.0038262)
(-0.00161844 -0.00147064 -0.00374726)
(-5.84362e-07 0.000696556 -0.00460481)
(0.00158127 -0.00173491 -0.0039581)
(2.00757e-05 -0.000111605 -0.00380795)
(-0.00160277 -0.00142226 -0.00355892)
(6.89939e-05 0.000703029 -0.00449542)
(0.00131254 -0.00190855 -0.00420198)
(5.20877e-05 6.72267e-05 -0.00315409)
(-0.0014012 0.00167722 -0.00491542)
(0.00158765 0.000934232 -0.00468142)
(-0.00164318 0.00130513 -0.00461486)
(0.00158184 0.000974914 -0.00466388)
(-0.00161086 0.00123475 -0.00464119)
(0.001614 0.00103032 -0.00463878)
(-0.00161064 0.00122931 -0.00462246)
(0.00183351 0.00104379 -0.00468268)
(-0.001321 0.00144404 -0.00443371)
(0.000647307 0.000131535 -0.00421758)
(-0.000855052 0.000485486 -0.00324186)
(-0.000552874 0.000733799 -0.00336032)
(0.000960034 0.00122153 -0.00454246)
(9.97853e-05 -0.000103996 -0.00309804)
(-0.000544292 -0.000510437 -0.00411882)
(0.000635825 0.000145192 -0.00555833)
(-0.00171194 0.000285559 -0.00339515)
(-0.000646181 0.000528784 -0.00348067)
(0.00204055 6.06331e-05 -0.00312798)
(-8.77279e-05 0.0001384 -0.00395566)
(3.82124e-05 2.55727e-05 -0.00353775)
(7.05122e-05 4.03511e-06 -0.00373267)
(0.000318433 4.75105e-06 -0.00370312)
(0.00146365 0.00177782 -0.00449554)
(-0.000340349 -0.000949119 -0.00389285)
(-4.1638e-05 2.85923e-05 -0.00387945)
(-0.000167843 0.000956921 -0.00394873)
(0.00065559 2.59749e-05 -0.00565692)
(-0.00151805 -2.49465e-05 -0.00330434)
(-0.00151965 0.000130514 -0.00333204)
(0.00339595 2.55703e-05 -0.0031791)
(-0.000165014 0.0010132 -0.00397863)
(0.00112892 -0.00173329 -0.00444263)
(0.00183754 0.00155107 -0.00483286)
(-2.29348e-05 2.08959e-05 -0.0037649)
(1.10761e-05 -2.96467e-05 -0.00399421)
(1.51692e-05 -5.53513e-06 -0.00400358)
(9.19978e-06 -9.21862e-07 -0.00399061)
(4.50599e-06 1.65093e-06 -0.00399624)
(1.78629e-06 1.88153e-06 -0.00399782)
(-4.8559e-07 2.31386e-06 -0.0039966)
(-4.72344e-06 5.29058e-06 -0.00399221)
(-1.15878e-05 1.06237e-05 -0.00400611)
(1.82237e-05 -1.80308e-05 -0.00461282)
(-6.14627e-06 4.72668e-06 -0.00456808)
(-0.000536479 0.000549155 -0.00319675)
(-0.000529329 -0.000225886 -0.00346408)
(5.60268e-05 -7.76057e-05 -0.00461399)
(0.000337375 -0.000423842 -0.00381786)
(1.91631e-05 0.000521292 -0.00338414)
(0.000514713 -0.000290138 -0.00411611)
(-0.00061566 -0.000565364 -0.00405841)
(-4.61293e-05 -0.000773357 -0.00571761)
(-0.000141795 -0.000873906 -0.00425913)
(0.000954416 -3.52058e-05 -0.00559862)
(0.000785104 0.000640548 -0.00401981)
(0.000218334 -0.000483358 -0.00419746)
(0.000613857 4.52935e-05 -0.00550253)
(0.000396827 0.000527902 -0.00400283)
(0.000301762 -0.000525807 -0.00410813)
(0.000659063 2.21488e-05 -0.00555222)
(0.000332762 0.000548775 -0.00406484)
(0.000356995 -0.000562692 -0.00403162)
(0.000670536 -1.77783e-05 -0.00557759)
(0.000291318 0.000512509 -0.00412232)
(0.000561793 -0.000614801 -0.00405661)
(0.000762223 -4.89561e-05 -0.00572663)
(0.000864053 -0.000141892 -0.00426225)
(3.71168e-05 0.000941233 -0.005599)
(-0.000633361 0.000779779 -0.0040298)
(3.49204e-05 -0.000511052 -0.00339566)
(0.000421902 0.000338832 -0.00381824)
(-0.00051114 0.000263392 -0.00341559)
(-0.000548381 -0.000538718 -0.00320268)
(7.83859e-05 5.80501e-05 -0.00461453)
(0.000226601 -0.000527843 -0.00346423)
(0.000124685 0.000414038 -0.00343987)
(-0.000429175 0.000425503 -0.00316016)
(-0.000471694 -0.00046918 -0.00318098)
(8.82521e-05 -7.09547e-06 -0.00460539)
(0.000140514 -0.000437821 -0.00344458)
(0.000169346 0.000439432 -0.00343127)
(-0.000465465 0.000474322 -0.00316196)
(-0.000441639 -0.000426115 -0.00318862)
(8.89841e-05 -1.43262e-06 -0.0046042)
(9.23765e-05 -0.000407298 -0.00345149)
(0.000268125 0.000517058 -0.00341397)
(-0.000510878 -3.3728e-05 -0.00339448)
(0.00066657 -2.55072e-05 -0.00448392)
(-0.0014369 0.00162484 -0.00357462)
(-0.00192604 -0.00127345 -0.00423722)
(0.00165993 0.00140811 -0.00492721)
(-0.00194383 -0.00149525 -0.00481591)
(-8.13967e-05 5.05484e-05 -0.00305528)
(-0.00133751 -0.000964953 -0.00446125)
(1.07273e-05 -2.06556e-05 -0.0031683)
(0.00130391 -8.82296e-06 -0.00429155)
(-0.000313165 -0.000180596 -0.00293842)
(0.00155409 0.000466196 -0.00397389)
(0.000770389 -0.00093278 -0.00410625)
(0.00114878 0.000928062 -0.00381434)
(-0.00172159 -0.00155788 -0.0039498)
(0.000671792 3.5542e-06 -0.00458447)
(-0.00148339 0.00159121 -0.00377095)
(0.000986845 -0.00157196 -0.00464406)
(0.0012866 0.00163662 -0.0046116)
(-0.00157361 -0.00167254 -0.0044537)
(3.52453e-05 6.95694e-06 -0.00372222)
(-0.00133787 0.00164773 -0.00444598)
(0.00117749 -0.00168811 -0.00455064)
(0.0014657 0.0017509 -0.00456003)
(-0.00155761 -0.00174553 -0.00451848)
(-9.7037e-06 6.49582e-06 -0.00378043)
(-0.00130549 0.00170677 -0.00452366)
(0.00124245 -0.00171842 -0.00453771)
(0.00151789 0.00177382 -0.00454348)
(-0.00155566 -0.00176644 -0.00452825)
(-3.09354e-06 3.97838e-06 -0.00379394)
(-0.00129813 0.00172529 -0.0045324)
(0.00126449 -0.00172961 -0.00453768)
(0.00153566 0.00178179 -0.00454163)
(-0.00156454 -0.00177419 -0.00452834)
(2.31238e-07 3.34478e-06 -0.00379949)
(-0.00130611 0.00173342 -0.00453413)
(0.00126245 -0.00173898 -0.00454)
(0.00153875 0.00179096 -0.00454602)
(-0.00158726 -0.00177727 -0.00452301)
(1.76473e-06 4.34759e-06 -0.00380382)
(-0.00132846 0.00173682 -0.00453222)
(0.00124195 -0.00174979 -0.00454449)
(0.00153061 0.0018029 -0.00455473)
(-0.00162211 -0.00177301 -0.00451365)
(4.10272e-06 5.72908e-06 -0.00380646)
(-0.00135685 0.00173018 -0.00452679)
(0.00120212 -0.00175483 -0.00454274)
(0.00150935 0.00180765 -0.00455823)
(-0.00164976 -0.00173652 -0.00450701)
(9.71972e-06 7.37031e-06 -0.0037943)
(-0.00136381 0.00168677 -0.00452568)
(0.00112894 -0.00173657 -0.00446262)
(0.00140935 0.00175106 -0.00447736)
(-0.000307726 -0.000948998 -0.00393986)
(0.000626315 -4.26099e-06 -0.00566009)
(-0.00150685 -6.99278e-05 -0.0033056)
(-0.00153665 2.90996e-05 -0.00329389)
(0.00341685 -2.82054e-05 -0.00319007)
(-0.000117395 -1.73698e-06 -0.00449337)
(-0.000128638 1.11162e-05 -0.00448104)
(7.88937e-05 1.47383e-05 -0.00373298)
(0.000343705 4.92307e-08 -0.00370412)
(0.00145418 0.00178166 -0.00448168)
(-0.000268708 -0.000944673 -0.00392377)
(-2.67717e-05 7.98451e-06 -0.00383189)
(-0.000299515 0.00112612 -0.00397369)
(0.0005966 -0.000152978 -0.00564001)
(-0.00153532 -4.4972e-05 -0.00332323)
(-0.00151009 3.71144e-05 -0.00329328)
(0.00339728 -5.54373e-05 -0.00319593)
(-0.000198891 0.000954094 -0.00392552)
(0.00112924 -0.0017545 -0.00446803)
(-4.29072e-05 1.01794e-05 -0.00387798)
(1.86683e-05 7.8119e-06 -0.00392345)
(1.81997e-05 2.19588e-05 -0.00399666)
(1.1716e-05 1.42138e-05 -0.00398989)
(6.10039e-06 7.59233e-06 -0.00399797)
(2.64754e-06 3.41571e-06 -0.0039994)
(-1.28341e-08 2.34758e-07 -0.00399757)
(-4.36343e-06 -4.69043e-06 -0.00399261)
(-1.05279e-05 -1.18233e-05 -0.00400596)
(1.81862e-05 1.75797e-05 -0.00461261)
(-5.63269e-06 -6.3262e-06 -0.0045692)
(0.000426309 -0.000442072 -0.00318266)
(-0.000473193 -0.000470859 -0.0031728)
(0.000471529 -0.000471071 -0.00317034)
(-0.000428305 -0.000443098 -0.00318246)
(8.59077e-07 9.05108e-05 -0.00460364)
(0.000428766 0.000156007 -0.00343101)
(-0.000405224 9.83563e-05 -0.00345029)
(-2.27752e-06 -0.000595296 -0.00347141)
(-0.00051041 0.000312253 -0.00410709)
(2.83535e-07 -0.000631295 -0.00576956)
(-0.000428868 0.000156372 -0.00343198)
(-3.31965e-07 9.06902e-05 -0.00460381)
(0.000404174 9.85434e-05 -0.00344923)
(1.58899e-05 -0.000623895 -0.0057372)
(0.000476686 0.000217259 -0.00418494)
(-3.89334e-05 0.000596937 -0.00548405)
(-0.000515397 0.000385366 -0.00399999)
(1.68577e-06 -0.000595064 -0.00347224)
(0.000509695 0.000312894 -0.00410671)
(-5.26876e-07 0.000648009 -0.00548528)
(-8.68682e-08 0.000904804 -0.00292849)
(0.000902818 0.000955678 -0.00393425)
(-0.00155183 -0.00156536 -0.00377327)
(0.00154996 -0.00156181 -0.00376889)
(-0.00153302 -0.00168089 -0.003951)
(0.00161381 0.0012194 -0.00460821)
(-0.00165104 -0.00151278 -0.00445447)
(0.00172664 0.00138829 -0.00455728)
(-0.00172139 -0.00148646 -0.00451858)
(0.00174883 0.00143774 -0.00454217)
(-0.0017415 -0.00148067 -0.00452778)
(0.00175667 0.00145541 -0.00454128)
(-0.00174926 -0.00148753 -0.00452802)
(0.00176589 0.00145899 -0.00454662)
(-0.00175225 -0.001509 -0.00452266)
(0.00177817 0.00145258 -0.00455698)
(-0.00174822 -0.00154461 -0.00451228)
(0.00178465 0.0014374 -0.00456334)
(-0.0017137 -0.00157871 -0.00450236)
(0.00175832 0.00140699 -0.00450541)
(-0.000942086 -0.000309821 -0.00388929)
(1.98107e-05 0.000667552 -0.00565761)
(0.000950931 -0.000212397 -0.00396388)
(2.56291e-05 -3.6803e-05 -0.00387802)
(-0.00171531 0.00121811 -0.00445221)
(0.00166788 -0.00145382 -0.0045365)
(8.64996e-06 1.41016e-05 -0.00379626)
(-0.00173355 0.00130341 -0.00454127)
(0.00170838 -0.00145888 -0.00453234)
(5.87339e-06 6.42934e-06 -0.00380819)
(-0.00172836 0.0013472 -0.0045464)
(0.001714 -0.00143332 -0.00453441)
(3.8932e-06 2.94783e-06 -0.00380505)
(-0.00171755 0.00136732 -0.00454274)
(0.00171023 -0.00141061 -0.00453449)
(2.70389e-06 6.67324e-07 -0.00380019)
(-0.00170824 0.0013678 -0.00454052)
(0.00170204 -0.00140087 -0.00453157)
(2.8194e-06 -3.26144e-06 -0.00379422)
(-0.00169739 0.00134449 -0.00454158)
(0.00168385 -0.00140416 -0.00452104)
(4.53053e-06 -1.04236e-05 -0.00378036)
(-0.0016683 0.00127565 -0.00455694)
(0.00162455 -0.00142829 -0.00444121)
(5.15238e-06 3.34074e-05 -0.0037212)
(-0.00155176 0.00106849 -0.00465039)
(9.12862e-07 -9.86754e-05 -0.00381465)
(0.00155123 0.00106755 -0.00464517)
(-0.00162557 -0.0014306 -0.00444621)
(-7.30753e-06 3.347e-05 -0.00372123)
(-0.00161141 0.00122578 -0.00461292)
(0.00153069 -0.00167121 -0.00395003)
(-2.87731e-06 0.000670736 -0.00458343)
(-0.000910522 0.00110907 -0.00380605)
(-5.91675e-05 0.000828924 -0.00296418)
(0.000926158 0.000775877 -0.00411507)
(-0.00160711 -0.00147436 -0.00358061)
(0.00155169 0.000967181 -0.00466519)
(-0.00163407 -0.00137615 -0.00446353)
(0.00164146 0.00121702 -0.00454858)
(-0.00167091 -0.00134841 -0.00454495)
(0.00166896 0.00129214 -0.0045395)
(-0.00167675 -0.00134448 -0.00454463)
(0.00168104 0.00131624 -0.00454458)
(-0.0016788 -0.0013551 -0.00454049)
(0.00169533 0.00131844 -0.00455249)
(-0.00167839 -0.00138337 -0.00453279)
(0.001717 0.00130849 -0.00457031)
(-0.00166551 -0.00141729 -0.00450706)
(0.00173842 0.00128614 -0.00459294)
(-0.001607 -0.00140374 -0.00445993)
(0.00172525 0.00122605 -0.00451672)
(-0.0009284 -0.000202315 -0.00391051)
(-0.000199264 0.000483053 -0.00557511)
(0.000403772 -0.000553226 -0.00412826)
(5.09442e-05 -1.04128e-05 -0.00373652)
(-0.00160133 0.00168064 -0.00479389)
(0.00144127 -0.0020567 -0.00487046)
(2.02028e-05 3.54563e-05 -0.00367345)
(-0.001578 0.00184678 -0.00487994)
(0.00152528 -0.00201006 -0.00486094)
(2.8973e-06 1.78278e-05 -0.00368717)
(-0.00153026 0.0018813 -0.00487685)
(0.00152404 -0.00193892 -0.00485531)
(-1.88001e-06 6.89407e-06 -0.00368017)
(-0.00151184 0.00188242 -0.00486399)
(0.00151349 -0.00190273 -0.00485285)
(-2.6543e-06 1.65466e-06 -0.00367435)
(-0.0015068 0.00188227 -0.00486116)
(0.00151071 -0.00189206 -0.00485601)
(-7.69918e-06 -3.70265e-06 -0.00367095)
(-0.00150253 0.00187926 -0.00486358)
(0.00151321 -0.00189189 -0.00485539)
(-1.95041e-05 -7.82001e-06 -0.0036633)
(-0.00148201 0.00184805 -0.00488324)
(0.00149336 -0.00190848 -0.00481758)
(-4.50336e-05 4.25468e-05 -0.00361226)
(-0.00137959 0.00164338 -0.00492647)
(0.00126316 -0.00190021 -0.00423637)
(2.72311e-05 0.000666759 -0.00448239)
(-0.000457791 0.00154912 -0.00397246)
(0.000779117 0.00137661 -0.00419682)
(0.0012812 -0.000691189 -0.00366159)
(4.08483e-05 0.00131247 -0.00430554)
(0.000159432 -0.000311556 -0.00293008)
(-0.000234222 0.000247317 -0.0033442)
(0.000655505 0.0015726 -0.00380392)
(-0.00202202 -0.00136106 -0.00349198)
(0.00153421 0.00126981 -0.00477402)
(-0.00192389 -0.00119553 -0.00464929)
(-0.00129549 0.00191489 -0.00447901)
(-0.00160178 -0.00168598 -0.00444881)
(4.15907e-05 -1.33563e-05 -0.00371206)
(0.00105479 -0.00188691 -0.00461402)
(0.00116662 0.00160942 -0.00468103)
(-0.00167963 -0.0016465 -0.00363457)
(0.000649557 4.83745e-05 -0.00460297)
(-0.00150737 0.00173347 -0.00404293)
(-0.000112019 7.73826e-05 -0.0038451)
(8.07606e-05 3.35774e-05 -0.00377959)
(-0.000610173 -0.000490579 -0.00557087)
(5.22027e-05 4.81025e-05 -0.00449515)
(-2.46385e-05 -3.93927e-05 -0.00426177)
(-0.000647361 2.57379e-05 -0.0057197)
(6.60288e-05 -9.40613e-06 -0.0041002)
(-0.000104531 -3.3702e-06 -0.00382242)
(-0.00152939 0.00158484 -0.00390378)
(-0.00165871 -0.00158795 -0.00379396)
(0.00119673 0.00158907 -0.0046501)
(-0.00155185 -0.00165194 -0.00444112)
(1.99482e-05 2.67491e-07 -0.0037609)
(0.00141584 0.00170425 -0.00456018)
(-0.00154335 -0.00171518 -0.00452099)
(0.00149043 0.00173479 -0.00454399)
(-0.00154461 -0.00173432 -0.00453172)
(1.09651e-05 1.20072e-06 -0.00373891)
(0.00151798 0.00174756 -0.00454423)
(-0.00155608 -0.00174105 -0.00453211)
(0.00152305 0.0017599 -0.00454963)
(-0.00158068 -0.00174166 -0.00452644)
(5.91498e-05 1.41611e-06 -0.00372895)
(0.00151219 0.00177394 -0.00455867)
(-0.00160982 -0.00173151 -0.0045151)
(0.00148169 0.00177862 -0.00455982)
(-0.00161446 -0.00168767 -0.00451001)
(0.000333487 -2.73618e-06 -0.00370813)
(7.7988e-05 2.29944e-06 -0.00373699)
(5.00537e-05 3.8034e-06 -0.00374244)
(5.26592e-05 1.27037e-05 -0.0037428)
(2.53521e-05 7.13212e-06 -0.00374975)
(6.21371e-05 4.60126e-06 -0.00373584)
(0.00156303 0.00178989 -0.00457331)
(-0.00165191 -0.00172898 -0.00451547)
(1.27809e-05 9.12711e-06 -0.00380084)
(-0.00133985 0.00204463 -0.00455435)
(0.00110383 -0.00201973 -0.00450896)
(0.00153889 0.00180924 -0.00458419)
(-0.00162041 -0.00167062 -0.00448619)
(2.89975e-05 1.75316e-05 -0.00378148)
(-0.00142269 0.00202917 -0.00457136)
(0.000988976 -0.00192852 -0.00438916)
(0.00197653 0.00122904 -0.00488685)
(-0.000232716 -0.000855119 -0.00375181)
(3.72593e-05 -0.0013658 -0.00552886)
(-0.00164769 -9.27965e-05 -0.00335965)
(-0.00152051 -2.10692e-05 -0.00321466)
(0.00321538 -0.000493706 -0.00326914)
(-0.000199565 -0.000126846 -0.00432561)
(5.35259e-05 3.82664e-05 -0.00351229)
(9.00891e-05 0.000908703 -0.00312649)
(-0.000981364 0.00118614 -0.00456892)
(0.00022458 9.46133e-05 -0.00306033)
(0.000771751 -0.00193271 -0.00439943)
(-0.000798748 0.00146847 -0.00456269)
(6.56437e-05 1.46046e-05 -0.00305658)
(0.000828499 -0.00163938 -0.00449359)
(-0.000751535 0.00149846 -0.0045372)
(1.04071e-05 -3.25885e-06 -0.00304963)
(0.000806651 -0.00154272 -0.00452931)
(-0.000771315 0.00151803 -0.004539)
(-1.4243e-06 6.79836e-07 -0.00304812)
(0.000771508 -0.00149031 -0.00451609)
(-0.000748736 0.00151291 -0.00451077)
(-1.99689e-05 -1.06668e-05 -0.00305026)
(0.000803108 -0.00148928 -0.00453382)
(-0.000724254 0.00157195 -0.00451043)
(-4.9135e-05 -2.69129e-05 -0.00305576)
(0.000846993 -0.00142034 -0.0045243)
(-0.000569888 0.00160523 -0.00447724)
(-8.22236e-05 -0.000100939 -0.00305343)
(0.00100134 -0.0012672 -0.00448411)
(0.00038023 0.000411315 -0.00343623)
(0.000281212 0.00061842 -0.00331304)
(-7.39463e-05 -0.000762659 -0.00412736)
(-3.85064e-05 6.42243e-06 -0.0036035)
(0.000394207 0.00124579 -0.00401593)
(-0.000173332 -0.00106033 -0.00416453)
(0.00177556 0.00124443 -0.00464344)
(-0.00189705 -0.00121665 -0.0046918)
(0.00185376 0.00123534 -0.00464933)
(-0.0018929 -0.00122234 -0.00467654)
(-0.00122548 0.00198881 -0.00453504)
(-0.0015891 -0.0017433 -0.00454427)
(-3.72782e-06 -4.11827e-06 -0.00378627)
(0.00121297 -0.00199372 -0.00455171)
(0.00153045 0.00173736 -0.00454894)
(-0.00158803 -0.00173232 -0.00453865)
(-8.76311e-06 -1.04119e-05 -0.00377525)
(-0.00123046 0.00197111 -0.00452506)
(1.03937e-05 -1.0387e-07 -0.00375271)
(9.16172e-07 -4.43154e-06 -0.00355061)
(1.34104e-05 -2.90014e-06 -0.00356301)
(-1.28912e-06 -0.000114315 -0.00316772)
(2.63849e-05 2.58931e-05 -0.00369349)
(0.000101861 0.000159528 -0.0035853)
(9.42792e-05 0.000173284 -0.00343943)
(0.000171262 7.05622e-05 -0.0040096)
(-5.00317e-05 3.0194e-05 -0.00398046)
(2.70808e-05 9.9788e-05 -0.00393939)
(0.000713156 7.06767e-05 -0.00397592)
(0.00113316 -9.10085e-05 -0.00308751)
(0.00094507 0.00147341 -0.00503107)
(0.000319437 0.00047235 -0.00278645)
(0.00143687 0.000102704 -0.00374052)
(0.000571954 0.000352601 -0.00397136)
(0.000268168 7.5274e-05 -0.00388107)
(7.99602e-05 2.26259e-05 -0.00389712)
(5.12133e-05 1.57753e-05 -0.00400956)
(-2.31217e-05 5.24834e-06 -0.00394914)
(-1.47112e-05 2.93479e-06 -0.00393682)
(1.47663e-05 4.1395e-06 -0.0040152)
(2.40327e-05 4.03956e-06 -0.00389665)
(-0.000225459 -0.0011186 -0.00416064)
(-3.47273e-06 1.21101e-06 -0.00365739)
(0.00025987 0.00114162 -0.00411699)
(-0.000239947 -0.00112849 -0.00413075)
(0.0018771 0.00123212 -0.00466784)
(-0.00190146 -0.00122558 -0.0046628)
(0.00188822 0.00124416 -0.00467986)
(-0.00193856 -0.00122779 -0.00464928)
(-0.00127151 0.00201864 -0.00454354)
(-0.00162816 -0.00174488 -0.0045351)
(4.48402e-06 3.25098e-06 -0.00379724)
(0.00120315 -0.00200341 -0.00454666)
(0.00156949 0.00176734 -0.00455844)
(-0.00160193 -0.00174674 -0.00454214)
(5.56694e-07 -2.26015e-07 -0.00379167)
(-0.00123787 0.00200048 -0.00453983)
(1.80164e-05 3.888e-06 -0.00374297)
(7.97509e-06 4.02131e-06 -0.00354989)
(2.01851e-06 -4.67261e-07 -0.00354927)
(1.3821e-06 -1.15874e-05 -0.003153)
(3.47077e-06 -5.51153e-06 -0.0036809)
(6.16356e-06 1.7377e-05 -0.00364075)
(9.79454e-06 1.25849e-05 -0.00348552)
(7.88068e-06 2.30491e-06 -0.00368061)
(2.10579e-05 5.39428e-05 -0.00355939)
(3.20793e-05 3.86797e-05 -0.00341752)
(0.000305676 0.00116651 -0.00410615)
(-5.33792e-06 5.67909e-06 -0.00365379)
(-1.99358e-06 -5.37157e-05 -0.00315663)
(-9.82782e-06 -4.64747e-06 -0.00398252)
(1.68392e-06 -7.80608e-05 -0.00400076)
(4.07356e-06 1.00787e-05 -0.00395622)
(-4.03642e-05 0.000775206 -0.00395541)
(9.36803e-05 0.00148029 -0.00373219)
(-0.00108013 0.00272101 -0.00362294)
(-2.70306e-06 0.000285196 -0.00359735)
(1.48437e-05 -4.13913e-05 -0.00316028)
(6.998e-07 -1.9241e-05 -0.0039387)
(-1.46246e-05 -7.38271e-05 -0.00388736)
(0.0016513 -0.0015032 -0.00445197)
(-2.82227e-07 6.5748e-06 -0.00375521)
(-0.00172591 0.00139873 -0.00456088)
(0.00166811 0.00127304 -0.00455283)
(-0.00168399 -0.00140489 -0.00452474)
(-5.92902e-06 -1.03397e-05 -0.003781)
(0.0017239 -0.00148098 -0.00451726)
(1.73341e-08 1.0972e-05 -0.00373745)
(-0.00174858 0.00144672 -0.00454422)
(0.00169862 0.00134227 -0.00453958)
(-0.00170084 -0.00140018 -0.00453289)
(-2.46874e-06 -3.10964e-06 -0.00379522)
(0.00174568 -0.00148059 -0.00452884)
(9.92286e-07 9.51533e-06 -0.00373109)
(-0.00175581 0.00145949 -0.00454165)
(0.00171155 0.00136773 -0.00454187)
(-0.00170694 -0.00140935 -0.00453236)
(1.13241e-07 9.16428e-07 -0.00380168)
(0.00175574 -0.00149323 -0.00453193)
(1.89161e-06 2.53089e-05 -0.00372674)
(-0.0017643 0.00145537 -0.00454452)
(0.00172377 0.00137159 -0.00454877)
(-0.00170758 -0.00143299 -0.00452622)
(2.57978e-06 3.45013e-06 -0.00380709)
(0.00176215 -0.00152258 -0.00453124)
(1.57023e-06 7.10971e-05 -0.00372053)
(-0.00177526 0.00143194 -0.00454783)
(0.001738 0.00136152 -0.00456099)
(-0.0016976 -0.00146457 -0.00451205)
(6.2037e-06 7.28024e-06 -0.00381014)
(0.00175977 -0.00156372 -0.00452962)
(-3.3826e-06 0.000172999 -0.00371095)
(-0.00177747 0.00137791 -0.00453725)
(0.00174432 0.00133962 -0.00456833)
(-0.00165494 -0.00148002 -0.00449989)
(9.84856e-06 1.54196e-05 -0.00379497)
(0.00171485 -0.00157852 -0.00453209)
(-1.51256e-05 0.000385754 -0.00369016)
(-0.00174389 0.00128921 -0.00445088)
(0.00171921 0.00128912 -0.00449361)
(-0.000943486 -0.00024822 -0.00393346)
(-1.14864e-06 -3.57694e-05 -0.00387107)
(0.000936853 -0.00028742 -0.00393409)
(-5.74766e-05 0.00339314 -0.00320975)
(-0.000119564 -0.00151568 -0.00330597)
(-0.000125657 -0.0015476 -0.00317697)
(-0.000131152 0.00250683 -0.00301007)
(-0.00164355 0.000651737 -0.00431311)
(0.000410082 0.000270677 -0.00307276)
(0.000365005 -0.00234038 -0.00414773)
(-0.000139925 -0.000482415 -0.00341062)
(-0.000288402 -0.000282326 -0.00326806)
(-0.000143821 0.00120262 -0.00427032)
(-0.00187723 -0.00125548 -0.00437847)
(0.000395451 -2.19211e-05 -0.00368085)
(-0.000480192 2.61776e-05 -0.00388202)
(-0.000804842 -0.000157219 -0.00388182)
(-0.000294986 -0.000189113 -0.00391259)
(-0.000230916 -1.9433e-05 -0.00399278)
(-0.000241688 5.01491e-05 -0.00391553)
(-0.000102907 2.90414e-05 -0.00392453)
(-4.59932e-05 1.18037e-05 -0.00401891)
(7.60255e-06 -1.54233e-05 -0.00390747)
(-1.88234e-06 6.93698e-06 -0.004018)
(-3.72766e-05 1.10951e-05 -0.00393088)
(-4.65807e-05 3.26758e-06 -0.00390262)
(-2.73184e-05 3.56896e-07 -0.00391307)
(-5.30059e-05 -3.00583e-06 -0.00392916)
(-0.000105179 -1.03147e-05 -0.003963)
(1.85959e-05 -1.98102e-05 -0.00391532)
(0.000837498 -6.86834e-05 -0.00391872)
(0.000982013 -3.67979e-05 -0.00298166)
(0.000963007 0.000958181 -0.00407242)
(0.00110955 -0.000958598 -0.0036045)
(0.00137217 1.15196e-05 -0.00374867)
(0.00130638 6.17973e-06 -0.00376621)
(0.00102179 -0.00097366 -0.00383873)
(0.00102852 0.000959346 -0.00396653)
(0.000671041 -2.27182e-06 -0.00459513)
(-0.000596768 3.98651e-06 -0.00346421)
(0.000192629 -4.33878e-06 -0.00426844)
(-7.00239e-05 -7.26712e-05 -0.00421479)
(-4.90428e-05 -4.60531e-05 -0.0042602)
(0.000174839 0.000173961 -0.00432309)
(-0.000520285 1.88552e-05 -0.0033868)
(-1.41906e-06 0.000200191 -0.00425474)
(-8.18184e-07 -7.10078e-05 -0.00427001)
(-1.68158e-06 -8.70673e-05 -0.00424975)
(1.31295e-07 9.61429e-08 -0.0045995)
(-0.000328661 0.000320669 -0.00310812)
(-0.000374436 -0.00037275 -0.00312857)
(-0.000371084 0.000374246 -0.00312304)
(-0.000332685 -0.000319474 -0.00311807)
(0.000329802 -0.00032341 -0.00310805)
(-0.000279964 -0.000276472 -0.00309705)
(1.03917e-05 1.03153e-05 -0.00460641)
(0.000372791 0.000371121 -0.00311804)
(-0.00032169 0.000333982 -0.00311476)
(-0.000323001 -0.000333381 -0.00311585)
(1.03102e-05 -9.93661e-06 -0.00460667)
(0.000371422 -0.00037393 -0.00312324)
(-2.19251e-08 -1.56057e-08 -0.004626)
(5.93739e-08 5.8228e-08 -0.00463138)
(1.63704e-07 2.37565e-05 -0.00462177)
(1.83054e-07 6.73862e-05 -0.00410034)
(-9.81983e-06 6.03148e-05 -0.00409298)
(1.31588e-05 -0.000133697 -0.00380251)
(-6.73221e-06 2.61681e-06 -0.00374998)
(-3.70548e-06 6.92129e-07 -0.00373997)
(-4.69001e-07 3.95291e-06 -0.00374139)
(2.03789e-06 1.13073e-05 -0.00374196)
(5.08718e-06 2.74289e-05 -0.00374046)
(2.16551e-05 1.17986e-05 -0.00354763)
(1.60045e-05 9.60234e-05 -0.0031532)
(8.71178e-06 -7.54613e-05 -0.00366822)
(3.78623e-05 -8.39231e-06 -0.00362786)
(-1.06352e-05 5.45853e-05 -0.00346921)
(0.000226811 0.00120058 -0.00413948)
(-0.000323626 -0.00109542 -0.00411784)
(0.00191727 0.00126464 -0.00472112)
(-0.00197858 -0.00124603 -0.00457566)
(0.001969 0.0012778 -0.00481915)
(-4.09773e-05 -3.06762e-05 -0.00369601)
(-0.00057844 -0.00113287 -0.00398302)
(-8.64768e-05 3.2969e-05 -0.00339769)
(0.000159347 0.00126967 -0.00417725)
(-1.71776e-05 -4.652e-06 -0.00368878)
(-3.8269e-05 -5.55135e-05 -0.0039158)
(-2.01601e-05 1.14071e-05 -0.00399675)
(-0.000110403 7.86651e-06 -0.00389209)
(-0.00023108 1.56913e-05 -0.00388131)
(-0.000460832 1.8588e-05 -0.00388565)
(-0.0010531 -1.33857e-05 -0.00402906)
(-0.00107665 -0.000188049 -0.00397614)
(-0.00268308 0.000644447 -0.00391576)
(-0.00126663 -0.000287478 -0.00371869)
(-0.00110756 -0.00123638 -0.00356231)
(-3.77117e-05 -0.000156668 -0.00359553)
(-0.000436695 -0.000148847 -0.00373892)
(0.000343184 -0.00243548 -0.00295014)
(-0.00216816 -0.000671359 -0.00323061)
(-0.00129555 8.56186e-05 -0.00437037)
(-0.000605943 -0.000982399 -0.00395802)
(0.000982179 0.000726344 -0.00414569)
(7.91096e-05 3.3376e-05 -0.00425015)
(5.128e-05 4.11373e-05 -0.00281509)
(-0.00102714 0.000879254 -0.00351389)
(0.00108702 0.000737571 -0.0037062)
(6.37921e-06 0.000103389 -0.00437943)
(-0.000128583 -8.24767e-05 -0.00291753)
(-0.00112846 0.000978058 -0.00366063)
(0.00109229 0.000878968 -0.00372671)
(1.90586e-06 0.000111469 -0.00440055)
(-0.000143356 -9.93862e-05 -0.00292927)
(-0.00110125 0.000887483 -0.00361462)
(0.00108868 0.00100241 -0.0037705)
(9.38908e-06 0.000103898 -0.00438419)
(-0.000234982 -0.000229116 -0.00298449)
(-0.00105074 0.000736129 -0.0035712)
(0.000776232 0.00102363 -0.00399132)
(-0.000618354 -0.000354649 -0.00545241)
(0.000506456 0.000533593 -0.00406948)
(0.000383929 -0.00046523 -0.00397097)
(0.00113353 0.000497242 -0.00499262)
(-0.000532605 -0.00196345 -0.00483945)
(-0.000308257 -0.00106644 -0.00394144)
(0.000168461 0.000192859 -0.00298253)
(0.000682514 -0.000484602 -0.00429666)
(-0.00223314 0.00105601 -0.00403981)
(-0.000124374 -6.3677e-05 -0.0037831)
(-0.00130756 -0.00173114 -0.00382993)
(0.00113909 0.000913237 -0.00380019)
(0.00104924 -1.82518e-05 -0.00286155)
(0.00100144 -0.00108458 -0.00392139)
(0.00125721 -0.00107214 -0.00440147)
(0.000608064 -0.00155877 -0.00315624)
(0.00013819 0.000656115 -0.00422038)
(0.000485807 -0.000857299 -0.00324369)
(0.000734708 -0.000548919 -0.00336331)
(0.00121415 0.000953845 -0.00454403)
(-0.000565814 -0.00197911 -0.00431158)
(0.000116667 -0.000221968 -0.00349069)
(0.000901049 0.00139219 -0.00457474)
(-0.000775953 -0.00171417 -0.00444194)
(8.67512e-07 -4.38935e-05 -0.00358514)
(0.000788686 0.00149196 -0.00454764)
(-0.000799797 -0.00157013 -0.00449811)
(-1.00376e-05 3.47348e-06 -0.00359575)
(0.000765375 0.00150415 -0.00453385)
(-0.000782101 -0.00151384 -0.00451391)
(-5.87769e-06 7.81407e-06 -0.00360253)
(0.000760781 0.00149764 -0.00452563)
(-0.000773965 -0.00149894 -0.00451934)
(-5.15537e-06 8.5443e-06 -0.00360047)
(0.000758483 0.00149689 -0.00452451)
(-0.000779014 -0.00149556 -0.00452013)
(-1.0896e-05 2.30953e-05 -0.00360775)
(0.000732971 0.00150497 -0.00451712)
(-0.000822458 -0.00148614 -0.00452308)
(-6.48665e-05 9.21174e-05 -0.0035478)
(0.000622391 0.00155252 -0.00450285)
(-0.000952445 -0.00133168 -0.0044584)
(-0.000354724 0.000374704 -0.00345899)
(-1.53723e-05 0.00129171 -0.00429338)
(-0.00128299 -0.000721296 -0.00364289)
(-0.000794354 0.00137051 -0.00419157)
(0.000463482 0.00154792 -0.00396775)
(-0.00126405 -0.00191952 -0.00423494)
(0.00139851 0.00163802 -0.00492804)
(-0.00148421 -0.00192648 -0.00481473)
(4.16787e-05 4.42695e-05 -0.00361227)
(-0.00155539 0.000964058 -0.00467398)
(0.00160457 -0.00147507 -0.00357321)
(-2.43732e-05 0.00066602 -0.00448436)
(-0.000925216 0.000772142 -0.00411339)
(5.90912e-05 0.00083592 -0.00296478)
(0.000911895 0.00110897 -0.00380123)
(-0.00090207 0.000953768 -0.00393692)
(3.19939e-06 0.000670249 -0.00458449)
(5.33318e-06 0.00129132 -0.00375446)
(1.56549e-06 0.000769017 -0.00394385)
(1.25745e-06 -6.3715e-06 -0.00394891)
(1.93836e-06 -0.000111953 -0.0039899)
(1.79542e-06 -6.26798e-05 -0.00395413)
(5.77628e-07 -3.92637e-05 -0.00396431)
(1.29337e-06 -2.36441e-05 -0.00395034)
(3.46392e-06 -4.61584e-05 -0.00394124)
(5.10106e-06 -2.43271e-05 -0.00367876)
(1.53652e-05 6.95369e-06 -0.00357046)
(2.27202e-06 2.47679e-05 -0.00342678)
(0.000246277 0.00114662 -0.00415379)
(-0.000258989 -0.00111117 -0.00415645)
(-7.49577e-06 2.97751e-08 -0.00366837)
(-1.87695e-06 1.94867e-06 -0.00365904)
(1.04875e-05 4.43065e-07 -0.00390058)
(1.08926e-06 8.01462e-08 -0.00396651)