/*--------------------------------*- C++ -*----------------------------------*\
| =========                 |                                                 |
| \\      /  F ield         | OpenFOAM: The Open Source CFD Toolbox           |
|  \\    /   O peration     | Version:  2306                                  |
|   \\  /    A nd           | Website:  www.openfoam.com                      |
|    \\/     M anipulation  |                                                 |
\*---------------------------------------------------------------------------*/
FoamFile
{
    version     2.0;
    format      ascii;
    arch        "LSB;label=32;scalar=64";
    class       volScalarField;
    location    "1.9";
    object      gradTx;
}
// * * * * * * * * * * * * * * * * * * * * * * * * * * * * * * * * * * * * * //

dimensions      [0 -1 0 1 0 0 0];

internalField   nonuniform List<scalar> 
5322
(
-0.251622
0.00571706
0.00697649
0.000800206
-0.000126227
-0.000165775
9.70722e-06
0.000136379
8.39307e-05
-0.000203997
-0.00100621
0.0110019
0.0169474
-0.233409
-0.0061831
0.406217
-0.319197
-0.00503622
-0.243536
0.156979
-0.213425
0.185616
-0.196324
0.197371
-0.199914
0.192009
-0.192415
0.199578
-0.196593
0.196609
-0.186557
0.21189
-0.159179
0.242537
0.00343616
0.304317
0.214547
-0.0855575
0.240495
-0.0138078
-0.22808
0.229364
-0.0138856
-0.244029
0.242513
-0.00834535
-0.259378
0.226503
-0.00572737
-0.271847
-0.268187
-0.38949
-0.121652
0.261205
-0.0166546
-0.431344
-0.0122537
0.412235
-0.0049463
-0.411934
-0.00177582
0.401467
-0.00231922
-0.404611
-0.000146091
0.395317
0.00501891
-0.400694
0.0172485
0.328134
0.0130219
-0.350299
0.396912
-0.410796
0.39546
-0.402715
0.4035
-0.402661
0.458378
-0.33025
0.161827
-0.213763
-0.138218
0.240008
0.0249463
-0.136073
0.158956
-0.427986
-0.161545
0.510139
-0.021932
0.00955309
0.0176281
0.0796082
0.365912
-0.0850873
-0.0104095
-0.0419608
0.163898
-0.379512
-0.379913
0.848987
-0.0412535
0.282231
0.459386
-0.00573369
0.00276902
0.0037923
0.00229995
0.0011265
0.000446572
-0.000121398
-0.00118086
-0.00289696
0.00455593
-0.00153657
-0.13412
-0.132332
0.0140067
0.0843437
0.00479077
0.128678
-0.153915
-0.0115323
-0.0354487
0.238604
0.196276
0.0545836
0.153464
0.0992068
0.0754405
0.164766
0.0831904
0.0892488
0.167634
0.0728296
0.140448
0.190556
0.216013
0.00927919
-0.15834
0.00873009
0.105476
-0.127785
-0.137095
0.0195965
0.0566503
0.0311713
-0.107294
-0.117923
0.022063
0.0351284
0.0423366
-0.116366
-0.11041
0.022246
0.0230941
0.0670312
-0.127719
0.166643
-0.359225
-0.48151
0.414983
-0.485958
-0.0203492
-0.334377
0.00268183
0.325976
-0.0782912
0.388522
0.192597
0.287195
-0.430397
0.167948
-0.370849
0.246711
0.32165
-0.393402
0.00881132
-0.334469
0.294372
0.366424
-0.389402
-0.00242593
-0.326372
0.310612
0.379474
-0.388915
-0.000773384
-0.324531
0.316122
0.383916
-0.391134
5.78095e-05
-0.326527
0.315612
0.384688
-0.396816
0.000441183
-0.332114
0.310487
0.382652
-0.405527
0.00102568
-0.339212
0.300531
0.377337
-0.412439
0.00242993
-0.340953
0.282234
0.352338
-0.0769314
0.156579
-0.376712
-0.384163
0.854213
-0.0293488
-0.0321594
0.0197234
0.0859264
0.363545
-0.0671771
-0.00669292
-0.0748787
0.14915
-0.38383
-0.377523
0.849319
-0.0497227
0.28231
-0.0107268
0.00466709
0.00454993
0.002929
0.0015251
0.000661886
-3.20852e-06
-0.00109086
-0.00263198
0.00454655
-0.00140817
0.106577
-0.118298
0.117882
-0.107076
0.000214769
0.107192
-0.101306
-0.000569379
-0.127602
7.08838e-05
-0.107217
-8.29914e-05
0.101043
0.00397246
0.119172
-0.00973335
-0.128849
0.000421444
0.127424
-0.000131719
-2.1717e-05
0.225705
-0.387957
0.38749
-0.383255
0.403451
-0.412761
0.43166
-0.430348
0.437207
-0.435374
0.439167
-0.437316
0.441473
-0.438063
0.444543
-0.437055
0.446163
-0.428425
0.439579
-0.235522
0.00495267
0.237733
0.00640727
-0.428828
0.416971
0.00216249
-0.433387
0.427096
0.00146835
-0.432089
0.4285
0.000973299
-0.429389
0.427556
0.000675973
-0.427059
0.425509
0.00070485
-0.424348
0.420963
0.00113263
-0.417074
0.406138
0.0012881
-0.38794
0.000228216
0.387807
-0.406392
-0.00182688
-0.402853
0.382673
-0.000719328
-0.22763
-0.0147919
0.231539
-0.401778
0.387924
-0.408518
0.410365
-0.417728
0.417241
-0.419188
0.420259
-0.419699
0.423833
-0.419596
0.42925
-0.416377
0.434604
-0.40175
0.431313
-0.2321
-0.0498161
0.100943
0.012736
-0.400331
0.360318
0.00505071
-0.394501
0.381321
0.000724326
-0.382565
0.381009
-0.000470002
-0.37796
0.378373
-0.000663574
-0.3767
0.377676
-0.0019248
-0.375631
0.378301
-0.00487602
-0.370502
0.373339
-0.0112584
-0.344898
0.31579
0.00680778
-0.114448
0.194779
0.320299
0.0102121
0.039858
-0.0585556
0.163876
-0.505504
0.383553
-0.480973
-0.323871
-0.400445
0.0103977
0.263696
0.291654
-0.419907
0.162389
-0.376843
-0.0280048
0.0201901
-0.152543
0.0130507
-0.00615962
-0.16184
0.0165072
-0.0261327
-0.382348
-0.414678
0.299182
-0.387963
0.00498705
0.353959
-0.385838
0.372607
-0.386153
0.00274129
0.379495
-0.38902
0.380761
-0.39517
0.0147875
0.378049
-0.402454
0.370423
-0.403615
0.0833718
0.019497
0.0125134
0.0131648
0.00633802
0.0155343
0.390758
-0.412978
0.00319523
-0.334962
0.275958
0.384722
-0.405102
0.00724937
-0.355672
0.247244
0.494132
-0.0581789
0.00931481
-0.411922
-0.380126
0.803846
-0.0498913
0.0133815
0.0225223
-0.245341
0.0561449
0.192938
-0.199687
0.0164109
0.207125
-0.187884
0.00260178
0.201663
-0.192829
-0.000356076
0.192877
-0.187184
-0.00499222
0.200777
-0.181064
-0.0122837
0.211748
-0.142472
-0.0205559
0.250335
0.0950575
0.0703029
-0.0184866
-0.00962661
0.0985517
-0.043333
0.443891
-0.474263
0.463439
-0.473225
-0.306371
-0.397274
-0.000931955
0.303243
0.382613
-0.397008
-0.00219078
-0.307616
0.00259843
0.000229043
0.0033526
-0.000322279
0.00659621
0.0254653
0.0235698
0.0428156
-0.0125079
0.0067702
0.178289
0.28329
0.236267
0.0798592
0.359217
0.142989
0.0670419
0.0199901
0.0128033
-0.00578044
-0.00367779
0.00369158
0.00600818
-0.0563648
-0.000868183
0.0649675
-0.0599867
0.469275
-0.475364
0.472056
-0.484639
-0.317878
-0.40704
0.001121
0.300789
0.392372
-0.400484
0.000139174
-0.309466
0.0045041
0.00199377
0.000504627
0.000345525
0.000867691
0.00154089
0.00244863
0.00197017
0.00526447
0.00801982
0.0764191
-0.00133448
-0.000498394
-0.00245695
0.000420979
0.00101839
-0.010091
0.0234201
-0.270033
-0.000675765
0.00371093
0.00017495
-0.00365615
0.412826
-7.05568e-05
-0.431477
0.417028
-0.420999
-0.00148225
0.430975
4.33353e-06
-0.437146
0.424655
-0.425211
-0.000617184
0.43642
0.000248071
-0.438952
0.427886
-0.426736
2.83104e-05
0.438936
0.000472903
-0.441076
0.430943
-0.426896
0.000644945
0.440536
0.000392557
-0.443816
0.434501
-0.424399
0.00155093
0.439944
-0.00084565
-0.444367
0.436081
-0.413736
0.00246214
0.428712
-0.00378139
-0.435972
0.429802
-0.235872
-0.000287161
0.234213
-0.0143691
-0.029891
-0.0314142
-0.0327879
-0.410888
0.102521
0.0912512
-0.0349812
-0.0721006
-0.0359554
-0.469308
0.0988628
-0.120048
-0.201211
-0.0737466
-0.057729
-0.0604221
-0.0257267
-0.0114983
0.00190064
-0.000470584
-0.00931914
-0.0116452
-0.00682959
-0.0132515
-0.0262949
0.00464897
0.209374
0.245503
0.240752
0.277387
0.343042
0.326596
0.255447
0.257129
0.16776
-0.149192
0.0481573
-0.017506
-0.0122607
0.0437096
-0.130071
-0.000354764
-0.000204546
-0.000420395
3.28238e-05
-0.0821653
-0.0936091
-0.092771
-0.0831713
0.0824506
-0.069991
0.00259791
0.0931977
-0.0804226
-0.0807502
0.00257755
0.0928556
-5.48128e-06
1.48435e-05
4.09259e-05
4.57636e-05
-0.00245496
0.00328969
-0.00168305
-0.00092637
-0.00011725
0.000509471
0.00127179
0.00541377
0.00400112
0.00217794
0.00946557
-0.0026588
0.0567027
-0.0809064
0.479316
-0.494645
0.492249
-0.0102443
-0.14461
-0.0216192
0.0398366
-0.00429441
-0.00956725
-0.00504002
-0.0276007
-0.05777
-0.115208
-0.263274
-0.269161
-0.670771
-0.316657
-0.27689
-0.00942792
-0.109174
0.085796
-0.54204
-0.323887
-0.151486
0.245545
0.0197774
0.01282
-0.256784
0.271754
0.0015948
-0.0321456
-0.282116
0.273072
0.000476466
-0.0358391
-0.275314
0.27217
0.00234727
-0.0587456
-0.262685
0.194058
-0.154589
0.126614
0.0959823
0.283383
-0.133151
-0.0770643
0.0421153
0.170629
-0.558285
-0.0310935
-0.32689
0.284774
0.262309
0.25036
0.314302
0.152016
0.0345476
0.121452
0.183677
0.303538
-0.141454
0.0291668
0.225262
-0.193988
0.000216878
0.197171
-0.199949
-0.0025094
0.191344
-0.195525
-0.00146942
0.190195
-0.193491
-0.00128884
0.189621
-0.194754
-0.00272399
0.183243
-0.205614
-0.0162166
0.155598
-0.238111
-0.088681
-0.00384306
-0.320749
-0.198588
0.11587
-0.316011
0.349627
-0.371053
0.0104197
-0.388848
0.401143
-0.00609331
-0.231304
0.0147728
0.227974
-0.225518
0.000799848
0.0013333
0.000391371
0.000314362
0.00048459
0.000448855
0.000144407
0.000323342
0.000865979
0.00127526
0.00384129
0.000568006
0.0615692
-0.0647472
-0.00187394
-0.000469238
0.00262187
0.000272315
0.303192
0.390531
0.00254672
-0.323512
0.316375
0.000186238
-0.325751
0.314979
0.000575122
-0.332428
0.309032
0.00118758
-0.342513
0.298226
0.00242452
-0.349458
-0.0154108
-0.012315
-0.0662221
-0.0658067
-0.106422
-0.0516188
-0.0252561
-0.0112978
-0.00754251
-0.0150357
-0.0278619
0.00180541
0.204256
0.237343
0.23046
0.327165
0.195825
0.00218843
-0.0221945
-0.0116121
-0.00598698
-0.00943716
-0.0221669
-0.0477379
-0.0990111
-0.232802
-0.24782
-0.441231
-0.332113
-0.104597
-0.105373
0.224637
0.0263391
-0.0275571
-0.0219088
0.111242
0.00460287
-0.088622
-0.0848162
0.0878904
-5.41947e-05
-0.0980157
-0.0938108
0.0769079
-0.000397931
-0.12185
-0.116262
0.0372042
-0.154107
0.0980151
0.0950207
0.0994548
0.0864874
-0.135279
0.00948734
0.0501352
-0.153238
0.0368008
-0.14802
0.173972
-0.402757
-0.0216545
-0.387558
0.263096
0.270955
0.27134
0.26628
0.261462
0.26472
-0.419272
-0.0253816
-0.378242
0.271221
0.29043
0.272398
0.286677
-0.0214038
-0.403309
-0.400773
0.17438
0.272343
0.24046
0.238108
0.296448
0.283851
0.22759
0.0692761
0.151422
0.0616824
-0.0327789
0.0760238
0.0116245
-0.0554482
0.0576776
0.00249731
-0.0572574
0.0568307
0.00034195
-0.0584047
0.0561271
-0.000169514
-0.0566817
0.0578828
-0.00077589
-0.058197
0.0560826
-0.00385686
-0.0609671
0.0532101
-0.0142215
-0.0811794
0.0311086
-0.0645983
-0.156866
-0.0748747
-0.232887
-0.280605
-0.286388
-0.192861
-0.141763
-0.217956
-0.00918113
0.15938
-0.120418
0.0117042
0.132122
-0.131766
0.00556269
0.1377
-0.141229
-0.00467328
-0.00949359
-0.24491
-0.000782593
-0.397173
0.000466494
-0.39356
0.00210876
0.411754
-0.417942
0.000497468
-0.414647
0.00485073
0.420814
-0.381525
6.77799e-05
0.382078
0.00199833
-0.381567
7.41002e-05
0.382005
0.00131542
-0.381683
0.000106218
0.38174
-0.000682123
-0.381873
0.000189166
0.381633
-0.00102881
-0.381981
0.000541498
0.38184
-0.00570868
-0.378138
0.0027549
0.378239
-0.00768536
-0.00841403
-0.471728
-0.340964
0.00780467
0.439709
-0.00285949
-0.467224
-0.324136
0.00644232
0.457078
-0.000918658
-0.465051
-0.319541
0.00241305
0.461644
-0.00067701
-0.464136
-0.317137
0.000156841
0.464394
0.000670372
-0.461733
-0.315621
-0.00197533
0.465706
0.00079418
-0.45748
-0.31291
-0.0055186
0.469178
0.00305142
-0.439439
-0.305147
-0.00584493
0.476869
0.0106929
-0.382116
-0.270127
0.0250705
0.50309
0.0607672
-0.0435116
0.116286
-0.199147
-0.321998
-0.00326568
-0.0901082
0.0014027
0.276085
-0.022794
0.00387036
-0.23266
0.00103967
0.398172
-0.38926
-0.00243749
-0.391964
0.0109268
-0.37612
-0.000733797
0.37824
0.00848612
0.00308278
0.00078409
0.00451679
0.409617
0.0028132
-0.00350082
-0.101819
-0.000283385
0.110051
-0.000151878
0.000361389
0.000496346
-0.0175312
-0.0202631
-0.0145248
-0.158733
0.0159719
-0.0260151
0.00244388
0.00279094
0.00493733
0.3603
0.297349
0.00171335
-0.00326865
-0.0135276
-0.0161794
0.264002
0.00970942
-0.336264
0.301163
-0.00222454
-0.325883
0.312837
-0.000700711
-0.000709306
0.00114698
0.00416003
0.00129641
0.00275578
0.00570842
0.00272001
0.00139096
0.00118182
0.00460147
0.00036332
0.0010048
0.0024705
-0.33333
0.293292
0.465089
-0.480274
0.473381
-0.478761
-0.00116476
-0.377238
-0.00362895
0.380648
-0.00471174
-0.374541
-0.0120318
0.392557
0.0234562
0.0293926
-0.267733
-0.000912376
0.287469
-0.301594
-0.000698583
-0.496858
-0.000950721
0.49499
-0.434067
-0.000196701
-0.439332
0.000121069
0.439163
-0.434069
-5.46829e-05
-0.431154
-5.53828e-05
0.431134
-0.443502
-0.000223191
-0.422091
-0.00133825
0.421118
-0.4202
-0.00376914
0.416364
-0.410273
-0.00776558
-0.00984392
-0.00227732
-0.000987289
-0.000137038
0.000147823
0.000440888
0.00129213
0.00267105
-0.00462456
0.00121321
-0.106685
0.118509
-0.117146
-0.109601
0.00109712
0.000658225
-0.00228024
0.00641884
0.103938
0.000945415
-0.00123775
-0.00967671
0.0126699
-0.0110993
-0.155471
0.0151916
-0.032952
0.233077
0.0112654
-0.0111622
-0.0094235
0.00619875
9.03095e-05
0.0797064
0.080761
-0.00243576
0.0688916
0.106569
-0.00184122
-0.00232188
-0.00239399
-0.000823462
0.00824526
-0.123906
0.316981
0.0184682
-0.473025
-0.00302559
0.478902
-0.420232
-0.00210293
-0.433704
-0.000215395
-0.428007
-0.000176363
-0.429329
0.000941008
0.430114
-0.441239
0.000189483
-0.422096
0.00062805
0.422545
-0.422287
-0.0004018
0.422346
-0.00027137
9.07773e-05
0.000459172
0.00116248
0.00189811
0.00251977
0.000135943
-7.57391e-05
-0.00256171
-0.00244273
-0.00921637
-0.0116005
-0.00243265
-0.00249982
3.9676e-05
5.24021e-05
0.000308457
0.00012884
0.000330364
0.000261181
0.000336711
0.000404355
0.00038111
0.000259371
0.00155772
0.00190006
0.00249658
0.00908836
-0.000505762
0.064194
-0.330286
-0.0835636
-0.000118807
-0.031225
0.141847
-0.14477
-0.470863
-0.17044
-0.0027473
0.0411869
-0.000220851
-0.333586
-0.141364
-0.0934808
0.213455
0.0257615
-0.0235924
-0.0413713
0.1204
0.00438017
-0.0823788
-0.102552
0.10304
0.000229992
-0.0910788
-0.108085
0.0955543
0.000564986
-0.117102
-0.122497
0.0257625
-0.00707472
0.00114385
0.00145757
0.412146
-0.372679
0.00250619
0.38585
-0.0140277
0.0103474
-0.487529
0.00177872
-0.302699
0.310378
-0.00262627
-0.294707
-0.51325
0.444018
-0.0278698
0.0449559
0.16686
0.00176
0.359043
0.266779
0.300348
-0.398942
0.00467764
-0.337969
0.0106574
-0.374205
0.00803786
-0.358533
0.0105455
-0.36031
0.00907975
-0.384508
0.280033
0.273799
-0.019271
-0.482104
-0.387642
0.171181
-0.119063
0.149368
0.083897
0.0996923
-0.146351
0.0412519
0.0313012
-0.157933
0.0623473
0.114338
-0.136967
0.214626
-0.114981
0.017907
-0.127204
0.0221634
-0.138745
-0.108731
0.0212915
-0.00879976
-0.00201615
-0.00138269
-0.000303247
0.000315833
0.000386097
0.000521911
0.00126777
0.00261098
-0.00468142
0.0013139
-0.0697402
0.0823421
0.000600072
0.0166138
0.0119219
0.00960618
-0.119856
-0.00879248
0.128083
-0.105437
-0.057723
0.129926
-0.141546
-0.193411
-0.218297
0.153936
0.158952
-0.00952529
-0.0133968
-0.0434023
0.00504789
0.162954
-0.0296317
-0.0381722
-0.0215244
0.116646
0.116729
-0.0383482
-0.02936
0.14996
-0.0823366
-0.17433
-0.0827692
0.160534
-0.0160923
-0.0170711
-0.020857
-0.00553673
0.00172265
0.275683
-0.0232673
0.010605
-0.000449404
0.000351603
0.000573599
0.000355513
-4.47333e-05
-0.000704349
-0.00177242
-0.000244773
-0.00126145
0.000329736
-0.0112379
-0.00419342
0.00612447
-0.0157819
-0.0075888
-0.00749609
-0.209467
0.201298
-0.00575679
-0.00471374
0.00980819
-0.004831
-0.00447749
0.0340715
0.0709934
0.0363157
0.253192
-0.127471
0.0163127
0.13297
0.167907
-0.0666432
0.00665347
-0.00242151
0.0110303
-0.0026923
0.00127799
-0.0192175
-0.00381844
0.000132189
-6.07669e-06
-0.000524013
-0.00120756
-0.000829254
-0.00208782
0.00147838
0.00281824
0.000611823
-0.00530688
-0.00112
-0.000242456
-0.000212352
-0.000380814
0.000554572
0.0075558
0.00234872
0.00387342
0.00221765
0.000842378
1.92584e-05
0.000763737
0.000806823
0.00170385
0.0029866
-0.410879
0.373634
-0.375937
0.376767
-0.376313
0.00192934
-0.416715
0.416724
0.00444642
0.00293898
0.00181739
0.000806113
0.407677
0.00246311
-0.00379192
0.129026
-0.00278058
0.00240987
0.0115727
-0.0190187
0.136552
0.107232
-0.0474216
0.0188613
-0.000401931
-0.000170573
0.0700017
-0.0024098
-0.000142622
0.0493921
-0.149424
0.0433253
0.000519976
0.0173515
0.0126949
0.00135108
-0.0132542
0.005373
0.011673
-0.0475211
-0.0436403
0.137021
-0.0578594
-0.105331
-0.0191856
0.129387
-0.00862045
0.0116576
0.00931519
-0.00648837
-0.000352543
0.00254822
0.00931514
-0.00368462
-0.00407546
-0.00108655
-0.000636599
-0.000185794
0.00117589
0.000749429
0.000634692
0.000425643
0.418662
-0.418877
0.376954
-0.377285
0.377595
-0.379097
0.00182854
-0.420972
0.419611
0.00136381
0.000560302
3.24812e-05
-0.000368863
0.000541561
-0.00107124
0.000550722
0.000242908
0.000439396
0.000337773
0.000646513
0.000218283
0.00068116
0.00201019
0.0112591
0.0101986
0.0366354
0.00173727
0.000739686
0.000137358
-0.000762777
-0.00272601
-0.00113811
-0.00114224
0.000126728
-0.000264825
-0.000208065
0.000243168
0.000269915
0.000261503
1.53317e-05
-0.00110157
-0.00292361
-0.00305963
-0.0011912
1.52143e-05
0.00011013
0.000195516
0.000301793
0.000413761
0.000732424
0.00063029
0.000586983
0.00130335
0.00111054
0.000607208
0.00176781
0.00339097
0.00138721
0.00205209
0.0491129
-0.0100292
0.00441904
0.00143401
0.00537006
0.108572
-0.00505777
-0.0156835
0.0776736
0.0232983
-0.333734
-0.116093
-0.254139
0.227748
-0.15504
-0.166007
0.203867
-0.270222
-0.0145482
-0.0197851
-0.224613
0.197786
-0.00315341
-0.0110396
-0.00114258
0.00404097
0.00565982
0.082689
0.0258003
-0.153415
-0.131825
0.250455
0.0249533
-0.0592417
-0.0171949
0.103449
0.0033776
-0.118191
-0.0766251
0.0778063
-0.000279711
-0.123738
-0.085041
0.0676065
-0.00112005
0.10776
0.103657
0.00620411
0.129562
-0.125949
0.00048498
-0.113821
-0.000632656
-0.00262145
-0.000446687
-3.79611e-05
0.000177923
0.000197016
0.0001718
0.000138233
4.05687e-05
-0.00105178
-0.00286453
-0.00151111
-0.325396
0.311021
-0.00068545
-0.323814
0.316434
0.475167
-0.479994
0.475723
-0.485378
0.000279373
-0.382235
0.00257821
0.378366
-0.00036498
-0.378378
-0.000218115
0.378498
0.00204806
0.0022982
-0.278609
0.00079181
0.282689
-0.304406
0.000443708
-0.496334
0.000434343
0.498563
-0.434751
-0.000158714
-0.437721
0.000460024
-0.43304
-0.000690466
-0.426655
-0.00131572
0.422613
-0.438462
0.000111362
0.420052
-0.00118259
-0.413452
0.412451
-0.00122013
-0.427417
0.431989
-0.417557
-0.00015205
0.000426261
0.00186828
0.0015704
0.000809638
0.000269047
-0.000222068
-0.00108708
-0.00118817
-0.00016802
0.000849949
0.00211134
0.00215951
0.00466755
-0.32558
0.316256
0.000943898
-0.330665
0.31202
0.47545
-0.496113
0.472702
-0.505305
0.0127742
-0.432356
0.0398852
0.376561
0.00244421
-0.396406
0.0114221
0.379782
0.000716957
0.00709356
-0.275403
0.00570937
0.293655
-0.31104
0.00154168
-0.492227
0.00273251
0.497464
-0.425979
-0.00169495
0.416886
0.00379568
-0.471411
0.275216
-0.00111573
-0.317599
0.282146
-0.295534
0.0154412
-0.0361065
-0.0180133
-0.0312942
-0.0558627
0.351123
-0.498045
0.107903
-0.079554
-0.030896
-0.0117523
-0.00432335
-0.00253818
-0.00414155
-0.00108793
0.0664156
0.684957
0.343423
-0.178302
0.120213
0.0614723
0.39091
-0.339063
0.368324
-0.0219367
-0.240292
0.0116565
0.434708
-0.411026
-0.00109912
-0.407931
-0.000105193
-0.41253
-0.000256983
-0.422301
0.00183288
0.426076
-0.436123
0.000424543
-0.420561
0.00172473
0.422437
0.00162715
0.00110309
0.443204
0.00247168
0.438133
-0.000343947
-0.0028015
-0.00527827
-0.0179381
0.00285541
0.240319
0.0167058
0.0208936
0.0828246
0.145556
-0.201279
-0.000568577
-0.298595
0.00102958
-0.49442
-0.00228681
0.491421
-0.43135
-0.000808334
-0.438606
-4.48235e-05
-0.432571
-3.87453e-05
-0.430981
0.000363624
0.43128
-0.442936
-1.88795e-06
0.443147
-6.47841e-05
0.000407312
0.443691
-2.88299e-05
-0.000173511
-0.00086662
-0.00229746
0.427344
-0.00454786
0.403212
0.0240992
0.0123456
0.304173
0.0120661
0.00717129
-0.000532368
0.309031
0.00118287
0.00486123
-0.277974
-0.000361841
-0.30336
-0.000162479
-0.496604
-0.0001983
0.496757
-0.434907
-2.16179e-05
-0.439097
0.000276261
-0.434212
-0.000272852
-0.430189
-0.000575227
0.429439
-0.443144
-0.000443713
0.436766
-0.000943358
-0.000407204
3.8715e-06
0.000142788
0.000229633
0.000427242
0.00125581
0.00235624
0.00127334
0.00125421
0.000625167
0.00110383
-0.00157565
-0.000615423
0.000138927
0.000444469
0.000522549
0.000474685
0.000336284
0.000549251
0.0010449
0.00311626
0.00264529
-0.330065
-0.0085874
-0.323328
0.359163
-0.00739035
-0.340767
-0.348515
0.366113
0.342305
-0.00725368
-0.325291
-0.371512
0.389033
-0.349656
-0.00887595
-0.312784
0.352074
0.370315
0.364912
0.356915
-0.00814446
-0.344302
-0.319731
0.0026771
0.348728
-0.006741
-0.365345
-0.333195
0.00120338
0.344663
-0.00247394
-0.373644
-0.339122
-0.348449
-0.356587
-0.00281656
0.355665
0.363193
0.00125206
0.337734
-0.00275023
-0.330908
-0.380166
0.386608
0.00115896
-0.305289
-0.45861
-0.00628138
0.316855
0.00215123
-0.298013
-0.440993
-0.00714104
0.334316
0.393754
-0.283182
0.0228144
-0.275284
-0.00972057
-0.279014
0.0224887
-0.274447
-0.00967267
-0.280104
0.0236202
-0.27963
0.389004
0.338409
-0.0105656
0.0152717
-0.00139597
-0.208792
-0.250287
-0.237
-0.262753
-0.250185
-0.252174
-0.259058
-0.212715
-0.329198
-0.260298
-0.237909
-0.249559
-0.1686
-0.0728377
-0.090412
0.14964
-0.167357
0.393772
0.398137
0.395072
0.396747
0.411229
0.386532
-0.162137
0.130716
-0.0725414
-0.168757
-0.0908622
0.163095
-0.0168936
-0.00348241
-0.00348653
-0.00163138
-0.000733994
0.000390988
0.000392358
0.36065
-3.6306e-05
-0.351889
-0.360338
-0.333328
-0.384093
-0.000270742
0.335293
0.384629
0.000482007
-0.307873
-0.464255
-0.00229337
0.312618
0.467526
0.00154772
0.0608508
-0.0597027
-0.000678007
0.0606777
-0.060027
-7.40047e-05
0.0614594
-0.0594856
0.00218444
0.0680582
-0.053591
0.0128259
0.0951729
0.0338874
0.0189017
0.00626995
0.00291173
0.000479073
-7.99867e-05
-0.000471282
-4.25181e-05
-0.00125202
-0.000923363
-0.00278305
-0.0617672
0.470028
0.00313783
0.0580319
-0.080522
-0.0126562
-0.0219126
-0.00858249
-0.0526909
0.0364192
0.0109153
-0.383596
0.0237122
-0.264809
-0.0107709
0.0157648
0.000674243
-0.16802
-0.286201
-0.278529
-0.233092
-0.0735944
-0.157185
-0.0634221
-0.125402
-0.356462
0.0608373
0.503016
0.384094
0.41374
-0.161726
-0.344381
-0.207832
-0.000535129
0.0349457
0.0228096
0.0130496
0.00494932
0.0016084
-0.000183072
-0.308784
-0.468245
0.466355
0.311303
0.000346434
0.00191526
0.00575991
0.00632251
0.0196569
0.00718984
0.00128508
-0.000258235
0.000101692
0.382044
0.00163385
-0.334346
-0.387144
-0.307731
-0.474776
0.00102556
0.311914
0.466018
0.00240909
0.00153939
0.00164577
0.00113511
0.00174756
0.00303312
-0.424118
0.379975
-0.380381
-0.00589772
0.00247903
0.00119049
-0.00264311
0.00061429
0.000180711
0.420333
0.000609455
0.000409585
0.419617
0.00267053
0.000253786
0.000811887
0.00150032
-0.00090298
-1.66608e-05
0.000487321
8.6427e-05
0.000309189
0.0001434
3.5324e-05
0.000373573
0.00137827
0.000609957
0.000132444
5.5755e-05
-0.000784627
-0.000250017
-0.000263493
-0.000862933
-7.22313e-05
0.000181414
0.000169512
-0.000451797
-0.000352164
-0.000206256
-0.000174458
-0.00372755
-0.00384839
-0.0169948
-0.00649784
0.372059
-0.00243803
0.000217153
0.000129948
-0.00172443
-0.00184857
-0.00103298
-0.00700895
-0.0063921
-0.00483905
-0.000966153
-0.336987
0.303168
0.00463251
-0.334635
-0.0137816
-0.0136809
-0.0651832
-0.0831654
-0.304244
-0.306517
-0.491583
0.123213
0.0468919
0.254645
-0.0896456
0.132022
-0.0148218
-0.150829
0.135733
-0.00339714
0.105898
-0.00345384
0.127667
-0.140898
-0.0119003
-0.00374694
-0.00462482
0.00202779
-0.0170403
0.113399
-0.00567256
0.00419608
0.00423962
0.00271878
0.00154004
0.000665932
0.000568725
0.00603963
0.00519533
0.012975
0.0112051
0.0320297
0.00662713
0.00299635
0.00101024
0.303859
-0.306421
0.00112109
-0.49584
0.00136212
0.500801
-0.43295
-0.000640546
-0.433253
0.00045829
0.428227
-0.000280727
1.5244e-05
0.000311113
0.000435685
0.00110788
0.0023358
0.00139901
0.000871051
0.000482415
0.000186445
9.16743e-05
0.000142917
0.000166402
0.000155642
0.426347
5.37315e-06
0.432004
3.07891e-05
0.414443
0.397921
0.00161112
0.396387
0.239068
0.00630139
0.00137043
-0.000159707
7.84911e-05
-0.00084204
0.433463
0.00151099
-0.00103687
0.282068
0.000174062
0.000534439
-0.000304028
0.304297
0.00106287
0.00350618
-0.277481
0.00276696
0.286989
0.000161702
0.0021501
0.000969287
0.000642174
-8.38337e-05
0.435061
0.000156906
0.434462
-6.06567e-06
0.00064051
0.435558
0.000293625
0.439586
-0.000140024
0.00182666
0.435343
-0.00155577
0.303142
-0.000373611
0.00605988
-0.2786
0.00955913
0.298545
-0.00967238
-0.00032569
-0.0106891
-0.0360624
-0.0844367
0.00314549
-0.0122815
-0.00531985
0.00406103
0.00367326
0.432556
-0.000648121
-0.00138576
-0.00135738
-0.00028928
-0.00486114
-0.000240343
0.000664303
0.000510105
0.438547
0.432949
-0.000330035
-6.68405e-05
-0.000876883
-0.00168296
-0.00186406
-0.00799781
-0.00299356
-0.00310939
-0.00165196
-0.000632174
0.441479
-0.0012524
-0.000213896
0.000397086
-0.000290126
-0.00154274
-0.00551111
-0.0166545
-0.00399495
9.81887e-05
0.00040616
0.0018144
-0.00210619
0.00244651
0.00421354
-0.00733474
0.0324487
0.0671974
-0.0488577
0.348484
-0.00168712
-0.0232772
-0.0341347
-0.0189682
-0.00655814
-3.94609e-05
0.00646869
0.0187998
0.0338777
0.0364465
0.000660319
0.0179079
0.0177481
-0.329263
-0.167501
-0.344817
-0.169226
-0.000471108
0.0212632
0.00541113
0.00226881
0.322412
0.383126
-0.00144504
0.00311819
0.00127895
0.00254612
0.00139527
0.00302071
-0.00388098
-0.020652
0.153836
0.352725
0.0147521
-0.000490239
0.00100358
0.00102963
0.000518888
0.000603001
0.000257746
0.000258513
0.000328207
-0.000576704
0.000120657
8.65459e-05
0.000870187
-0.000411862
-0.000677648
-0.36339
0.00257102
-0.353931
0.341287
0.0068654
-0.355612
-0.367584
0.350678
0.328253
0.00458536
-0.334886
-0.391451
0.375275
-0.000699129
0.31377
0.463668
0.00517532
-0.00106562
-0.00126032
0.000999993
0.00171706
0.00446793
0.0772553
0.122244
0.18709
0.44235
0.0287029
0.228893
0.338887
-0.0156206
-0.00427713
-0.0112858
-0.0030743
-0.00158103
-0.000222017
0.333216
0.357452
0.349337
0.339205
0.00275768
-0.379207
-0.345249
-0.000891909
0.33398
0.00725642
-0.381103
-0.350437
-0.00222662
0.322339
0.343548
0.305804
-0.00155623
-0.00242511
-0.00270366
-0.00082143
0.000259188
0.00166499
0.000322464
0.000266274
-0.000815303
-0.000346416
-0.00311989
0.0294798
-0.00323462
-0.00203508
-0.00492408
-0.00389616
-0.00241234
-0.00411007
-0.00175884
0.0843226
-0.00200345
0.00187903
0.000256086
-9.05912e-06
0.0051068
0.00447115
-0.0315793
0.181398
-0.0788372
-0.306278
-0.387915
0.0290629
-0.17755
0.0737447
0.0233384
-0.109403
-0.117641
-0.0128469
-0.0194275
0.129076
0.118294
-0.0111064
-0.115078
-0.00199098
0.115578
-0.000586053
0.0015047
-0.000114866
0.00134793
0.00329851
0.0034324
0.00235971
0.000688892
0.000547976
-0.00133201
-0.0011522
-0.000185744
-0.00068946
-1.28741e-05
-0.000148554
0.000830615
0.00180888
0.00168434
-0.00235313
0.00307164
0.00657776
-0.012334
0.385839
-0.025318
0.0184345
-0.42941
0.0053022
0.00469144
0.0350588
0.00405797
0.0086115
0.0263187
-0.0019327
-0.000738422
-0.00259964
0.00680114
0.0741811
-0.00480046
-0.00276081
-0.0014084
0.00190498
-0.188138
0.218173
-0.00649898
0.00141638
-0.00892376
-0.0224189
-0.025364
-0.0047142
-0.00223662
0.0904766
-0.00230625
-0.00281605
-0.00530819
-0.000878738
-0.00310133
0.0797373
-0.00520086
-0.00298795
0.00680863
0.00519685
-0.00119019
-0.00132995
-0.000867579
-0.00220128
0.00203219
0.00553671
0.00439601
0.00354546
-0.00874612
0.0173204
0.0173978
0.0200995
0.0268112
0.385819
0.0525715
0.00819907
-0.0130705
-0.00468392
-0.000268927
0.00392245
0.011722
0.00178914
0.380086
0.318825
0.00115941
-7.64176e-05
0.00035515
0.000362504
0.316775
0.377567
0.00011881
-0.377171
-0.342172
0.341998
0.000348224
0.352891
0.000365513
0.00760422
0.0212016
0.00214295
0.00207507
0.0061639
0.00039589
0.000495394
-0.00615152
-0.0187109
-0.00523769
0.313921
0.335122
0.322228
-0.00590384
-0.00192967
-0.000309995
-9.04958e-05
-0.000290905
0.373827
0.315284
-0.000129906
0.000367428
0.00011015
-0.000730536
-0.000830747
0.312701
0.365174
-0.00178725
0.00105899
7.46259e-05
-0.00043952
-0.00187926
-0.0104486
-0.055314
-0.357681
-0.129051
-0.0252356
-0.00343373
-0.000502584
0.000281923
-0.000300171
-0.000635149
0.000783279
-0.0052272
-0.0135788
0.0127426
-0.0166324
-0.0332987
-0.0224036
0.0125552
0.230061
0.330938
-0.0160855
0.00275108
0.220101
0.332733
0.00188954
0.20955
0.346036
0.165052
0.00103884
-0.0019352
0.35606
-0.00213546
0.0201664
0.121463
0.0209665
0.0448133
0.0474809
0.0451031
0.0597262
0.0376784
-0.000987472
-0.00491151
0.0459125
-0.0215919
-0.0100316
-0.00778248
0.0490578
0.0047716
0.0338963
0.0297
0.207439
0.1751
0.194423
0.185627
0.190169
0.0411346
0.00667653
-0.000796487
-0.00697945
-0.0839447
-0.283804
-0.267944
2.37694e-05
0.0114423
0.17121
0.000112464
0.434403
0.00326981
0.000580095
0.000187633
-0.000648367
-0.0110105
0.00181676
0.305503
0.437343
0.43304
-0.000219425
-0.0107716
-0.42769
0.00120613
0.0015283
0.00141573
-0.0444232
0.477501
0.0127005
0.00676355
0.00226449
0.00586823
0.094888
0.00333865
0.214776
-0.254344
-0.031607
-0.449394
-0.000210978
-0.0214892
0.107472
0.000720435
-0.455745
0.411848
0.0056025
0.232841
0.0153734
0.0889708
0.216842
0.0347647
0.037025
0.00177145
0.00151381
-0.00173971
0.293282
0.0132879
-0.0185413
-0.0262728
-0.00841535
0.00214944
0.000459843
0.000197686
0.000351566
0.000412505
0.000132097
-0.000967445
-0.00151464
-0.0135897
-0.00688034
0.243839
0.0197279
-0.408762
0.445374
0.027001
0.321879
0.00204682
-0.298087
0.308551
0.0302534
-0.270616
0.293123
0.00585338
-0.282202
0.288354
0.00365823
-0.284735
0.288214
0.00261857
-0.286437
0.288116
-0.000613717
-0.289743
0.284945
-0.00721511
-0.296588
0.272432
-0.033561
-0.311948
0.203395
-0.148462
-0.394943
-0.1203
-0.370355
0.0231271
0.242036
-0.243895
0.0138933
0.253034
-0.250364
0.0052006
0.254167
-0.261321
-0.00294679
0.253377
-0.260196
-0.0215149
0.244651
0.256856
0.395955
0.100192
-0.285812
0.00373249
0.420147
-0.00077311
-0.428137
-0.00190518
0.410507
-0.0025088
-0.414532
-7.11623e-05
0.412114
0.000429414
-0.405934
0.00130505
0.417796
-0.01234
-0.439081
-0.0190679
0.342557
-0.0608332
0.0787246
0.178581
-0.326906
0.332968
-0.39585
0.372798
-0.384939
0.378765
-0.379177
0.380463
-0.376243
0.381755
-0.374487
0.380298
-0.376497
0.381641
-0.374262
0.391644
-0.332636
0.321699
-0.158574
0.313517
0.394268
0.196226
0.290869
0.21201
0.163552
0.107317