/*--------------------------------*- C++ -*----------------------------------*\
| =========                 |                                                 |
| \\      /  F ield         | OpenFOAM: The Open Source CFD Toolbox           |
|  \\    /   O peration     | Version:  2306                                  |
|   \\  /    A nd           | Website:  www.openfoam.com                      |
|    \\/     M anipulation  |                                                 |
\*---------------------------------------------------------------------------*/
FoamFile
{
    version     2.0;
    format      ascii;
    arch        "LSB;label=32;scalar=64";
    class       volScalarField;
    location    "1.9";
    object      gradTz;
}
// * * * * * * * * * * * * * * * * * * * * * * * * * * * * * * * * * * * * * //

dimensions      [0 -1 0 1 0 0 0];

internalField   nonuniform List<scalar> 
5322
(
-0.871999
-0.890236
-0.919104
-0.996341
-0.988568
-0.985749
-0.984932
-0.98577
-0.988644
-0.99676
-0.985405
-0.988208
-0.743703
-1.02532
-1.12115
-0.894971
-1.05792
-0.792003
-1.1151
-1.12527
-1.13235
-1.12724
-1.12775
-1.13368
-1.13356
-1.12729
-1.12763
-1.13286
-1.13321
-1.12758
-1.1273
-1.12942
-1.12159
-1.10368
-1.04932
-0.861442
-0.979807
-0.998603
-1.0308
-0.725899
-0.958593
-0.989284
-0.712886
-0.990748
-0.981061
-0.724726
-1.00447
-0.948154
-0.715068
-0.982078
-1.09988
-0.789292
-1.07412
-1.00918
-0.946251
-0.959483
-1.13813
-0.944614
-0.956157
-0.960504
-1.15201
-0.957346
-0.95655
-0.936815
-1.1512
-0.989525
-0.951987
-0.88973
-1.12385
-1.0505
-0.788523
-1.22885
-1.17035
-1.15371
-1.16597
-1.1603
-1.1597
-1.15561
-1.17067
-1.10843
-1.0544
-0.810466
-0.84008
-1.13561
-0.77451
-1.0297
-1.38958
-0.848788
-0.870167
-0.781996
-0.988916
-0.884438
-0.933169
-0.92578
-1.12388
-0.973212
-0.969861
-0.987183
-1.41423
-0.826085
-0.83301
-0.794775
-0.994658
-1.11066
-1.20821
-0.941226
-0.998553
-1.0009
-0.997652
-0.99906
-0.999454
-0.999151
-0.998053
-1.00153
-1.1532
-1.14202
-0.799187
-0.866019
-1.1535
-0.954466
-0.846034
-1.02903
-1.0146
-1.4294
-1.06478
-1.39966
-1.00495
-1.04937
-1.37563
-1.00071
-1.02703
-1.38805
-1.01621
-1.00791
-1.3944
-1.03058
-1.01415
-1.43166
-1.06556
-1.39975
-1.00745
-0.848916
-0.954559
-0.853897
-0.800671
-1.15363
-0.866057
-0.859969
-0.79004
-0.795246
-1.15135
-0.861145
-0.857817
-0.790489
-0.797154
-1.15105
-0.862873
-0.853493
-0.848621
-1.12098
-0.893655
-1.0593
-1.2318
-1.20398
-0.763821
-1.11531
-0.792076
-1.07289
-0.734606
-0.993473
-1.02656
-0.953585
-0.98745
-1.14612
-0.942736
-1.16102
-1.1529
-1.11343
-0.930556
-1.1115
-1.13766
-1.14001
-1.12962
-0.945107
-1.13091
-1.13443
-1.13587
-1.13206
-0.948486
-1.1331
-1.13442
-1.13541
-1.13208
-0.949873
-1.13353
-1.135
-1.13651
-1.13075
-0.950955
-1.13305
-1.13612
-1.13868
-1.12841
-0.951614
-1.1317
-1.13569
-1.13956
-1.12675
-0.948576
-1.13142
-1.11566
-1.11934
-0.984964
-1.41502
-0.8264
-0.823472
-0.797518
-1.12334
-1.12026
-0.933245
-0.92603
-1.12042
-0.980942
-0.957972
-0.993422
-1.41
-0.830807
-0.823319
-0.798983
-0.981379
-1.11701
-0.969496
-0.980864
-0.999164
-0.997474
-0.999492
-0.99985
-0.999392
-0.998152
-1.00149
-1.15315
-1.1423
-0.795664
-0.7932
-0.792584
-0.795615
-1.15091
-0.857753
-0.862572
-0.867852
-1.02677
-1.44239
-0.857994
-1.15095
-0.862307
-1.4343
-1.04623
-1.37101
-0.999998
-0.868061
-1.02668
-1.37132
-0.732122
-0.983563
-0.943317
-0.942223
-0.98775
-1.15205
-1.11362
-1.13932
-1.12965
-1.13554
-1.13194
-1.13532
-1.132
-1.13666
-1.13067
-1.13924
-1.12807
-1.14084
-1.12559
-1.12635
-0.972322
-1.4144
-0.990969
-0.969505
-1.11305
-1.13412
-0.949064
-1.13532
-1.13309
-0.952048
-1.1366
-1.1336
-0.951264
-1.13568
-1.13362
-0.950048
-1.13513
-1.13289
-0.948554
-1.1354
-1.13026
-0.945089
-1.13924
-1.1103
-0.930299
-1.1626
-0.953663
-1.16129
-1.11155
-0.930306
-1.15323
-0.987508
-1.14586
-0.951513
-0.741045
-1.02877
-0.895153
-1.1663
-1.11588
-1.13715
-1.13624
-1.13488
-1.13616
-1.13614
-1.13512
-1.13812
-1.1332
-1.14258
-1.12677
-1.14824
-1.11498
-1.12918
-0.977629
-1.39378
-1.03207
-0.934131
-1.19847
-1.21761
-0.918362
-1.21999
-1.21524
-0.921792
-1.21921
-1.21383
-0.920043
-1.216
-1.21321
-0.918588
-1.21529
-1.214
-0.917737
-1.21589
-1.21385
-0.915824
-1.22081
-1.20439
-0.903066
-1.23162
-1.05909
-1.1206
-0.993114
-1.0492
-0.915396
-1.07638
-0.73252
-0.836049
-0.95098
-0.872996
-1.1935
-1.16232
-1.11975
-1.1122
-0.928014
-1.1535
-1.17026
-0.908643
-1.15074
-1.01073
-0.961275
-0.944898
-1.39272
-1.12379
-1.06544
-1.42992
-1.02505
-0.955604
-0.975944
-0.94849
-1.16252
-1.11028
-0.940224
-1.14005
-1.13025
-1.136
-1.13293
-0.934727
-1.13606
-1.13303
-1.13741
-1.13161
-0.932238
-1.13967
-1.12877
-1.13996
-1.1275
-0.927032
-0.934248
-0.935611
-0.9357
-0.937438
-0.933959
-1.14333
-1.12887
-0.950211
-1.13859
-1.12724
-1.14605
-1.12155
-0.945371
-1.14284
-1.09729
-1.22171
-0.937951
-1.38221
-0.839913
-0.803666
-0.817284
-1.0814
-0.878071
-0.781622
-1.14223
-0.765082
-1.09986
-1.14067
-0.764145
-1.1234
-1.1343
-0.762407
-1.13233
-1.13475
-0.762029
-1.12902
-1.12769
-0.762565
-1.13346
-1.12761
-0.763941
-1.13107
-1.11931
-0.763358
-1.12103
-0.859057
-0.828259
-1.03184
-0.900875
-1.00398
-1.04113
-1.16086
-1.17295
-1.16233
-1.16914
-1.13376
-1.13607
-0.946567
-1.13793
-1.13724
-1.13466
-0.943813
-1.13127
-0.938178
-0.887653
-0.890754
-0.79193
-0.923374
-0.896324
-0.859857
-1.0024
-0.995114
-0.984849
-0.993981
-0.771877
-1.25777
-0.696612
-0.935129
-0.992839
-0.970268
-0.974279
-1.00239
-0.987285
-0.984206
-1.0038
-0.974162
-1.04016
-0.914347
-1.02925
-1.03269
-1.16696
-1.1657
-1.16996
-1.16232
-1.13589
-1.13378
-0.949311
-1.13667
-1.13961
-1.13554
-0.947917
-1.13496
-0.935743
-0.887473
-0.887318
-0.788249
-0.920226
-0.910187
-0.871381
-0.920153
-0.889847
-0.854379
-1.02654
-0.913447
-0.789159
-0.99563
-1.00019
-0.989055
-0.988852
-0.933048
-0.905735
-0.899337
-0.79007
-0.984675
-0.971841
-1.11299
-0.938803
-1.14022
-1.13821
-1.13119
-0.945249
-1.12932
-0.934362
-1.13606
-1.13489
-1.13322
-0.948806
-1.13221
-0.932774
-1.13541
-1.13547
-1.13309
-0.950421
-1.13298
-0.931684
-1.13613
-1.13719
-1.13155
-0.951771
-1.13281
-0.930133
-1.13696
-1.14025
-1.12801
-0.952536
-1.13241
-0.927738
-1.13431
-1.14208
-1.12497
-0.948743
-1.13302
-0.92254
-1.11272
-1.1234
-0.983364
-0.967767
-0.983522
-0.802436
-0.826492
-0.794243
-0.752518
-1.07828
-0.768191
-1.03693
-0.852656
-0.817015
-1.06758
-1.09462
-0.920212
-0.970505
-0.970455
-0.978149
-0.998196
-0.978882
-0.981133
-1.00473
-0.976868
-1.0045
-0.98272
-0.975654
-0.978268
-0.98229
-0.99075
-0.97883
-0.97968
-0.745414
-1.01811
-0.901126
-0.937169
-0.941554
-0.959682
-0.991632
-1.14878
-0.866053
-1.06711
-1.0537
-1.06505
-1.08077
-0.8467
-1.06368
-1.0675
-1.06244
-1.14987
-0.77703
-0.782141
-0.78076
-0.779518
-0.777013
-0.774263
-1.1516
-0.779509
-0.77869
-0.778963
-1.15167
-0.78081
-1.1565
-1.15785
-1.15544
-1.02509
-1.02324
-0.950627
-0.937495
-0.934992
-0.935347
-0.935489
-0.935115
-0.886908
-0.7883
-0.917056
-0.906966
-0.867302
-1.03487
-1.02946
-1.18028
-1.14391
-1.20479
-0.924003
-0.995754
-0.849422
-1.04431
-0.922195
-0.978949
-0.999187
-0.973022
-0.970329
-0.971412
-1.00727
-0.994036
-0.97894
-0.929673
-0.890578
-0.898882
-0.93473
-0.737535
-0.807652
-1.09259
-0.989506
-1.03642
-1.06254
-0.703773
-0.878472
-0.926549
-1.09486
-0.729383
-0.915158
-0.931678
-1.10014
-0.732317
-0.903656
-0.942625
-1.09605
-0.746122
-0.8928
-0.997831
-1.3631
-1.01737
-0.992743
-1.24815
-1.20986
-0.98536
-0.745634
-1.07417
-1.00995
-0.945775
-0.957484
-0.950047
-0.715389
-0.980347
-1.10037
-0.789061
-1.05509
-0.810922
-0.840826
-1.13601
-1.07789
-0.872672
-1.14368
-1.11048
-0.896284
-1.13691
-1.12453
-0.898938
-1.13346
-1.12848
-0.900631
-1.13141
-1.12984
-0.900117
-1.13113
-1.13003
-0.901938
-1.12928
-1.13077
-0.88695
-1.12571
-1.1146
-0.864748
-1.07334
-0.910721
-1.04789
-0.991938
-1.05874
-1.23201
-1.20368
-0.903067
-1.1685
-0.893302
-1.12109
-1.02835
-0.741196
-0.950307
-0.984229
-1.14612
-0.938614
-0.985962
-0.987227
-0.997476
-0.988532
-0.991078
-0.987586
-0.985309
-0.91969
-0.892614
-0.856695
-1.03845
-1.03911
-0.917091
-0.914761
-0.975144
-0.991626
-1.13643
-1.13776
-0.936525
-1.1326
-1.13477
-0.950619
-1.13321
-1.13544
-0.951855
-1.1328
-1.13645
-0.952338
-1.13131
-1.13518
-0.94848
-1.12921
-0.99417
-1.00322
-0.982654
-0.988391
-0.976811
-0.972191
-0.974067
-0.97654
-0.979305
-0.98338
-0.991947
-0.981918
-0.982865
-0.740927
-0.984231
-0.938165
-0.987091
-0.98606
-0.997116
-0.988353
-0.98466
-0.98221
-0.979859
-0.977869
-0.980351
-1.02383
-1.01803
-0.743148
-1.32612
-0.999843
-0.959661
-0.932919
-1.10013
-0.733575
-0.73536
-0.804938
-1.14704
-0.767484
-0.779055
-0.794132
-1.15358
-0.770987
-0.782542
-0.787259
-1.14874
-0.787342
-0.800851
-0.869578
-1.44924
-1.03106
-1.00665
-1.01145
-1.00235
-0.849531
-0.818687
-0.872764
-1.44388
-0.863489
-0.865115
-1.15125
-0.958933
-0.956023
-0.935934
-0.995383
-0.712393
-0.985383
-0.98613
-0.726234
-1.00062
-0.947137
-0.955572
-0.957149
-1.16137
-1.15749
-1.1678
-1.15193
-0.956551
-0.902287
-0.982175
-1.15303
-0.966096
-0.733046
-1.0259
-0.900165
-0.731796
-1.22591
-0.676585
-0.934748
-0.819361
-1.00675
-1.01305
-0.846323
-1.03689
-1.02725
-0.870539
-1.03072
-1.03728
-0.853199
-1.03779
-1.02981
-0.874084
-1.0293
-1.03883
-0.851491
-1.03777
-1.0311
-0.872407
-1.02613
-1.04122
-0.849284
-1.01434
-1.02142
-0.830242
-0.95154
-0.694066
-1.25349
-0.901937
-0.772723
-1.43122
-1.01494
-1.06498
-1.3981
-1.00644
-1.04748
-1.37405
-0.999358
-1.02846
-1.38789
-1.01878
-1.00518
-1.39356
-0.747599
-0.958606
-1.14934
-0.945548
-0.954167
-1.15996
-0.930352
-1.11146
-1.11201
-0.938779
-1.13756
-0.915752
-1.13481
-1.21348
-0.789415
-1.21601
-0.761634
-1.21298
-0.788178
-1.21358
-0.761014
-1.21355
-0.787946
-1.2135
-0.760958
-1.21347
-0.78809
-1.21286
-0.761374
-1.21548
-0.789034
-1.21295
-0.762296
-1.21931
-0.790731
-1.20204
-0.760535
-0.896078
-1.14811
-1.1213
-0.94333
-1.1667
-0.910581
-1.16651
-1.13223
-0.938655
-1.16664
-0.911693
-1.16513
-1.13395
-0.937379
-1.16537
-0.91164
-1.16605
-1.13457
-0.936834
-1.1667
-0.911775
-1.16478
-1.1355
-0.937432
-1.16608
-0.912159
-1.16586
-1.13732
-0.938873
-1.16924
-0.911931
-1.16542
-1.14246
-0.944564
-1.15506
-0.900469
-1.19951
-1.15313
-0.961373
-0.869249
-0.835266
-0.733427
-0.993446
-1.04927
-0.910886
-1.0737
-0.862393
-0.89653
-0.908347
-0.935191
-0.939268
-0.98153
-1.14658
-0.943076
-0.985378
-0.950666
-1.16642
-0.903512
-1.20347
-0.792087
-1.22053
-0.763194
-0.996418
-0.98634
-0.973892
-1.15402
-1.02338
-1.43324
-0.862555
-1.15096
-0.858246
-0.866754
-1.0659
-1.06108
-1.05283
-1.06179
-1.06831
-1.44193
-1.02444
-0.953987
-0.938638
-0.939947
-0.942696
-1.14151
-1.14307
-0.944203
-0.988654
-0.980912
-0.974754
-1.15265
-0.930784
-1.11332
-1.13825
-0.945425
-1.13015
-1.13506
-0.949017
-1.02776
-0.937324
-0.938292
-0.937664
-0.93778
-0.935348
-0.937619
-0.937506
-0.936838
-0.936324
-0.9351
-0.937676
-0.938892
-1.11386
-1.13838
-1.22009
-1.21341
-1.2153
-1.21277
-0.761927
-1.13116
-0.788876
-1.12952
-0.763422
-1.1322
-0.791863
-1.12597
-0.885776
-0.850899
-1.03828
-0.912025
-1.02882
-1.16784
-0.938793
-1.13671
-0.94531
-1.13353
-1.13492
-0.936938
-1.13345
-0.948805
-1.13297
-1.13345
-0.934805
-1.133
-0.94846
-1.13388
-1.13395
-0.933499
-1.13446
-0.917021
-1.13547
-1.13377
-0.915613
-1.13909
-1.11266
-0.903673
-1.0025
-1.00296
-0.998386
-0.999245
-0.999533
-0.999239
-0.998136
-1.00163
-1.15322
-1.14175
-0.796267
-0.789793
-0.794197
-0.860807
-1.44099
-1.02464
-1.02533
-1.4285
-0.860316
-0.865402
-1.06793
-1.06523
-1.12433
-1.06448
-1.43404
-1.02312
-0.950562
-1.1676
-0.903868
-1.00066
-0.981519
-1.1556
-1.14959
-0.778764
-0.776198
-1.15166
-0.773621
-0.789336
-1.15123
-0.982026
-0.939895
-0.890891
-0.944755
-1.39097
-1.20156
-0.961757
-1.15143
-0.927817
-1.12102
-1.10984
-0.942572
-1.13771
-0.944903
-1.12905
-0.936457
-1.13393
-0.947745
-1.13282
-1.13188
-0.933526
-1.13453
-0.917253
-1.13496
-1.13456
-0.917176
-1.13492
-0.935477
-0.935517
-0.935473
-0.935196
-0.937718
-0.981446
-1.15555
-1.1494
-0.959894
-1.00458
-0.982111
-1.00056
-0.981192
-0.95984
-1.00435
-0.93821
-0.940065
-0.936392
-0.935924
-0.937068
-0.934356
-0.984652
-0.982131
-0.979866
-0.982719
-0.980016
-0.908427
-0.889571
-0.892962
-0.900075
-0.734064
-1.01912
-0.750421
-1.35931
-0.981268
-0.958436
-0.960264
-1.11285
-0.986038
-1.03284
-0.981106
-1.34964
-0.966985
-0.958041
-0.931382
-1.09546
-0.731871
-0.745253
-0.812501
-1.14069
-0.764228
-0.790864
-0.804489
-1.14701
-0.767671
-0.792052
-0.799987
-1.1422
-0.785608
-0.805599
-1.16275
-0.998686
-0.933289
-0.926055
-1.13346
-1.20861
-0.918446
-1.22146
-0.763752
-0.915152
-1.1826
-0.935358
-1.12294
-1.14841
-0.936398
-1.10045
-1.18643
-1.13372
-1.05135
-0.837241
-0.958205
-0.890087
-1.10818
-1.17172
-1.15366
-1.11836
-0.940296
-1.10867
-0.93194
-1.11437
-0.940073
-1.10886
-0.932682
-1.11538
-0.94267
-1.10926
-1.17452
-1.14781
-0.95645
-0.848189
-1.00927
-1.15408
-0.845313
-1.01288
-1.0305
-0.99101
-0.864338
-0.86329
-0.868552
-1.43517
-0.869656
-0.958289
-1.3761
-1.03423
-0.994261
-0.844749
-0.858374
-1.15995
-0.797172
-0.796666
-1.15662
-0.98455
-1.00552
-1.00104
-0.997813
-0.999223
-0.99958
-0.999248
-0.99811
-1.00156
-1.15322
-1.14204
-0.773601
-0.77678
-1.05693
-1.0528
-1.06465
-1.37074
-1.04661
-0.848477
-0.853703
-0.954219
-0.866119
-0.846392
-1.01469
-1.43168
-1.06505
-1.3908
-1.00598
-1.39734
-1.12438
-1.08173
-1.06549
-1.42893
-0.860416
-0.860972
-1.15135
-0.792278
-0.791773
-0.861145
-0.860315
-0.864786
-1.02019
-1.40615
-1.02075
-1.44039
-1.02402
-1.02505
-0.944828
-0.792541
-0.898311
-0.90527
-0.935555
-0.988805
-0.988438
-1.00007
-0.991401
-0.987855
-0.985555
-0.983359
-0.981454
-0.978253
-0.982734
-0.981596
-1.01432
-0.747706
-0.819702
-0.824348
-1.41502
-0.958551
-0.968812
-0.999055
-1.32252
-0.740581
-0.822654
-0.825156
-0.753003
-0.832979
-0.848194
-1.38974
-0.997286
-1.02968
-0.782425
-0.870247
-0.948998
-0.893203
-0.906505
-0.983686
-1.0256
-1.0232
-0.983059
-0.981443
-1.01187
-1.00592
-0.999731
-0.996876
-0.995999
-0.98013
-0.977768
-0.977488
-0.971993
-0.98528
-0.923653
-0.921572
-0.920674
-0.91979
-0.918037
-0.913799
-1.00673
-0.990978
-0.991584
-0.988501
-0.985027
-0.982352
-0.981808
-0.97969
-0.994577
-0.994504
-1.13908
-1.22016
-1.21317
-1.21547
-1.21265
-0.916903
-1.13569
-1.13429
-0.915279
-1.03918
-0.937521
-0.938811
-1.11324
-1.02348
-1.43345
-1.00003
-0.950767
-0.981203
-1.00066
-1.15345
-0.799352
-0.790792
-1.06896
-1.06035
-1.0683
-1.0565
-0.772885
-1.15173
-1.05692
-1.06512
-0.867366
-1.08179
-1.05736
-1.05208
-1.06433
-1.06735
-1.12456
-1.06521
-1.06776
-1.06925
-1.08252
-0.798266
-0.866423
-0.954133
-1.15339
-0.854192
-0.848072
-1.00076
-0.982369
-1.15572
-1.1491
-0.959901
-0.982364
-0.940083
-0.890922
-0.792066
-0.887766
-0.789161
-0.934937
-0.934505
-0.935193
-0.932842
-1.13511
-1.13548
-1.21436
-1.21179
-1.21515
-1.21057
-0.918415
-1.1358
-1.13515
-0.917486
-1.04286
-0.887284
-0.787955
-0.887029
-0.787462
-0.935207
-0.93173
-0.937226
-0.933284
-0.936854
-0.932104
-0.935412
-0.933323
-0.884322
-0.788285
-0.930467
-1.04293
-1.04366
-1.04335
-1.04263
-1.03923
-1.02271
-1.00355
-1.00171
-1.02667
-1.00777
-1.00329
-1.02763
-1.00896
-1.00347
-1.0019
-1.02379
-1.02293
-1.0035
-1.00687
-1.00471
-1.00666
-1.00716
-1.00377
-1.02777
-1.00892
-1.0033
-1.02673
-1.00748
-1.00131
-1.02171
-1.03749
-0.930871
-1.1162
-0.74034
-1.1687
-0.99656
-0.980018
-1.14527
-0.787034
-1.1591
-1.06781
-1.03623
-0.977308
-1.34012
-0.969275
-0.962576
-0.903541
-1.07025
-1.08038
-0.851041
-0.963056
-1.07162
-1.07954
-0.989076
-0.968378
-1.33229
-0.981541
-1.0392
-1.04539
-1.04801
-1.03973
-0.977401
-1.07013
-0.944713
-0.942765
-1.09621
-0.746673
-0.730954
-0.800106
-1.14248
-0.785003
-0.773912
-0.78734
-1.14923
-0.785954
-0.777402
-0.780436
-1.14415
-0.801638
-0.869816
-1.43847
-1.0586
-0.992808
-0.866943
-0.86203
-1.15655
-0.983738
-1.00529
-1.00177
-1.00319
-1.00364
-1.00325
-1.00175
-1.00452
-1.02359
-1.03914
-0.916049
-1.13451
-1.13518
-0.917615
-1.13504
-1.13499
-1.21409
-1.21177
-1.2148
-1.21046
-0.761216
-1.1293
-0.787038
-1.13193
-0.761255
-1.13084
-0.787617
-1.13162
-0.899366
-0.862309
-1.03378
-0.912019
-1.03335
-1.16486
-0.936316
-1.1334
-0.945692
-1.13577
-1.13473
-0.936256
-1.13089
-0.947855
-1.13441
-0.936235
-1.12985
-0.945103
-1.13919
-1.14017
-0.939123
-1.11485
-0.932109
-1.1108
-1.11317
-0.940473
-1.13867
-1.13951
-1.1097
-0.931655
-0.982931
-0.938688
-0.936514
-0.937141
-0.937368
-0.937376
-0.937169
-0.887655
-0.887109
-0.935311
-0.932879
-0.93526
-0.931663
-1.13486
-1.13528
-0.918952
-1.13445
-1.13649
-1.21734
-1.2092
-1.22076
-1.20885
-0.763686
-1.11119
-0.786952
-1.13736
-0.761954
-1.12525
-0.786875
-1.13403
-0.898234
-0.860569
-1.02947
-0.913759
-1.0372
-1.15429
-0.935481
-1.12302
-0.941387
-1.14775
-1.13417
-0.940425
-1.1175
-0.924907
-1.10099
-1.18602
-0.93663
-1.13346
-1.05046
-0.957522
-0.8895
-0.957427
-0.9896
-0.83637
-0.87199
-1.14392
-1.07847
-0.783973
-0.904057
-0.911159
-0.915467
-0.917324
-0.918301
-0.919263
-0.921393
-0.89646
-0.906603
-1.04938
-0.910904
-0.693916
-0.835557
-0.951272
-0.868188
-1.25438
-0.771103
-0.898964
-1.15139
-1.01015
-0.906683
-0.955905
-1.1516
-0.930605
-1.10857
-0.940013
-1.13709
-0.944722
-1.13073
-1.12871
-0.934821
-1.13479
-0.917175
-1.13507
-0.996086
-0.981299
-1.13597
-0.979604
-1.1407
-0.991416
-0.990394
-0.977486
-0.980226
-0.939872
-1.01868
-0.993629
-0.936468
-0.991778
-0.831543
-1.01903
-0.900827
-1.1533
-0.944562
-1.14144
-0.943103
-1.13189
-1.13287
-0.938483
-1.13446
-0.948006
-1.13237
-0.935261
-1.13348
-0.948507
-1.13343
-1.13309
-0.933147
-1.1334
-0.98212
-0.982139
-1.13436
-0.980628
-0.979607
-0.982944
-0.987527
-1.14287
-0.981258
-1.17208
-0.98432
-0.970694
-1.01544
-1.00213
-0.995001
-0.973907
-1.16709
-1.003
-0.864269
-1.03395
-0.91227
-1.16592
-0.937066
-1.13484
-0.945706
-1.13438
-1.1352
-0.936323
-1.13248
-0.948781
-1.13385
-0.935053
-1.13213
-0.947749
-1.13475
-1.13536
-0.934862
-1.12981
-0.935383
-1.02668
-1.02738
-1.00879
-1.00393
-1.00353
-1.002
-1.00477
-1.00353
-1.02267
-1.02656
-1.04242
-0.937441
-0.937711
-0.937735
-1.04288
-1.02758
-1.02746
-1.00888
-1.00772
-1.02782
-1.02393
-0.945276
-1.13979
-0.939797
-1.13889
-1.13001
-0.936581
-1.13514
-1.1357
-1.12948
-1.1297
-0.938603
-1.13519
-1.13746
-1.13305
-1.14242
-0.942504
-1.13868
-1.11274
-1.10938
-1.11031
-1.11183
-0.942431
-1.14136
-1.13939
-0.945272
-1.1292
-0.938564
-1.13685
-1.1356
-0.948414
-1.13208
-0.937157
-1.13589
-1.13438
-1.13427
-1.13476
-0.935443
-1.1329
-1.13257
-0.948406
-1.13237
-0.937161
-1.13403
-1.13651
-1.13504
-0.945949
-1.13689
-1.16629
-0.938599
-1.13201
-0.943699
-1.14161
-1.16768
-0.944254
-1.12095
-1.11029
-1.17103
-0.955684
-1.15262
-0.93113
-1.16245
-0.954313
-1.16099
-0.931088
-1.15398
-0.955608
-1.16961
-1.11118
-1.11989
-0.928284
-0.982403
-0.974397
-0.979657
-0.750221
-1.01509
-0.964935
-0.988375
-0.990049
-0.746213
-0.976919
-0.943506
-0.963248
-1.01628
-0.750078
-1.39925
-1.03042
-1.00398
-0.865037
-1.1495
-0.975481
-0.945776
-0.947425
-0.97379
-0.909401
-1.00822
-1.15132
-0.84589
-1.03029
-1.39883
-1.00461
-1.4287
-1.02513
-0.94014
-0.938915
-0.937175
-0.937878
-1.0286
-0.949213
-1.13348
-0.934961
-1.13346
-1.1342
-1.13293
-1.1364
-0.93651
-1.13349
-1.13527
-0.946416
-1.13503
-1.16636
-0.936933
-1.13379
-1.16613
-0.912891
-1.03468
-1.03425
-0.863428
-1.03458
-1.03435
-0.863622
-1.03378
-1.03549
-0.861658
-1.03045
-1.03817
-0.857914
-1.01166
-0.971294
-0.999638
-0.97312
-1.00258
-0.973585
-1.00305
-0.973585
-1.00333
-0.973571
-1.00368
-0.864961
-1.03007
-1.16778
-0.912593
-1.03848
-1.01637
-0.852188
-1.00257
-0.974228
-0.970746
-1.01941
-0.901441
-1.20176
-0.961287
-1.15166
-0.928379
-0.982356
-0.982994
-0.993867
-0.771851
-0.900627
-1.25389
-0.694057
-0.952146
-0.831721
-0.991467
-0.936548
-0.835938
-0.868473
-1.00956
-0.908216
-1.15134
-0.939941
-0.979371
-0.974476
-0.987177
-0.993602
-0.986604
-0.983718
-0.982577
-0.936212
-1.13362
-1.16728
-1.16521
-1.13472
-0.990151
-0.989594
-0.98907
-0.98335
-0.980105
-0.976805
-0.975434
-0.990482
-0.94645
-1.13469
-0.936441
-1.13111
-1.13694
-1.13074
-1.17115
-0.935827
-1.13621
-1.16291
-0.913245
-0.76122
-0.99727
-0.984167
-0.987245
-1.0012
-1.1369
-1.21785
-1.20926
-0.787473
-0.885668
-0.886662
-0.787329
-0.934898
-0.930596
-1.13501
-0.933848
-0.92944
-1.13403
-0.919647
-1.04226
-0.937517
-0.936842
-1.03829
-1.02233
-1.02669
-1.00757
-1.00885
-1.02855
-1.00348
-1.00656
-1.00342
-1.00393
-1.02871
-1.02767
-1.02682
-1.00769
-1.02742
-1.04231
-1.0427
-0.918137
-0.997104
-0.996461
-0.982268
-0.984181
-0.989931
-0.981313
-0.97999
-0.973887
-0.986509
-0.934746
-0.996402
-0.986559
-0.984266
-0.986407
-0.988982
-0.994474
-0.991727
-0.989199
-1.0026
-0.998859
-1.13304
-1.13705
-0.918822
-1.13188
-1.00791
-0.992621
-0.987035
-0.992004
-0.892252
-0.950347
-1.21061
-1.24755
-0.745548
-0.99752
-1.36338
-1.01708
-0.849769
-1.00217
-1.01325
-0.86633
-0.868885
-1.45127
-1.03711
-1.00485
-1.27783
-1.10245
-1.10387
-1.04462
-1.06709
-0.790458
-1.16106
-0.981544
-1.00355
-1.0014
-1.0277
-1.02881
-1.02771
-0.937161
-0.934877
-0.930389
-0.933764
-0.929157
-0.88539
-0.88639
-0.886795
-1.1667
-1.1625
-0.935894
-1.13056
-0.944988
-1.1393
-1.13333
-0.93699
-1.12737
-0.944765
-1.13081
-0.936695
-0.93724
-1.0281
-1.04265
-1.04201
-0.920114
-1.02676
-1.00749
-1.00877
-1.00882
-1.02817
-0.937328
-0.936688
-0.938509
-1.14078
-0.980626
-1.12974
-0.974856
-1.11312
-1.16374
-0.943251
-0.976435
-0.991429
-0.739323
-0.981756
-0.980716
-0.982721
-0.987957
-1.13755
-0.987787
-0.973144
-1.0333
-1.00259
-0.98484
-0.973086
-1.16581
-1.00226
-0.862592
-1.03285
-0.912442
-1.03447
-0.973027
-1.00177
-0.983658
-0.983696
-0.98844
-1.13642
-0.983785
-1.13477
-0.97829
-0.988725
-1.13618
-0.983847
-1.13373
-0.978626
-0.988843
-1.13655
-0.972589
-1.17055
-0.998887
-0.856867
-1.01075
-0.914444
-1.18206
-0.970901
-0.984928
-0.989923
-0.976664
-0.951882
-0.893437
-0.938438
-0.921231
-0.979105
-0.988477
-1.13638
-0.981025
-0.988215
-0.976866
-0.961219
-0.940092
-0.975666
-0.98105
-0.982903
-1.13507
-1.13319
-0.980334
-0.979524
-0.983407
-0.991263
-0.980746
-0.967655
-0.940155
-0.975189
-0.980007
-0.981332
-1.13232
-0.995763
-0.995821
-0.995899
-0.918283
-0.919167
-0.921119
-0.883173
-0.910709
-0.918364
-0.918288
-0.918897
-0.995768
-0.985045
-0.984315
-0.980644
-0.933347
-0.726805
-0.813322
-0.919337
-0.976869
-0.99122
-0.986313
-0.979414
-0.976271
-0.975302
-0.976363
-0.979585
-0.986773
-0.985399
-0.974487
-0.977094
-0.977124
-0.94336
-1.1495
-0.939517
-0.994263
-0.982708
-0.993203
-0.989488
-0.943731
-1.13148
-1.13365
-0.937529
-1.02393
-1.00351
-0.959964
-1.02281
-1.0393
-0.89117
-0.944947
-1.3911
-1.23246
-0.763205
-0.888005
-1.04254
-1.02782
-1.00768
-1.02665
-1.0274
-1.00881
-1.0286
-0.937805
-0.937861
-0.938015
-0.937798
-1.02765
-0.948298
-1.1336
-0.935157
-1.13212
-1.13608
-0.936286
-1.12892
-1.13154
-1.13382
-1.13597
-0.937071
-1.12713
-1.13693
-1.13307
-0.94577
-1.13984
-1.1547
-0.914617
-0.762015
-0.99058
-0.982531
-0.983768
-0.988575
-0.990036
-0.957481
-0.951756
-0.893475
-0.975348
-0.938474
-0.920895
-0.980054
-0.990026
-0.978077
-0.975747
-0.985852
-0.986857
-1.13443
-1.1337
-1.13473
-1.1338
-0.937105
-1.13469
-1.13273
-0.948437
-1.13472
-0.938573
-1.1325
-1.13063
-0.945631
-1.1383
-1.14311
-1.14038
-0.943684
-1.03968
-1.02445
-1.00203
-1.00449
-1.00253
-1.00346
-0.934109
-0.927119
-1.12237
-0.79908
-0.73396
-1.15928
-1.06636
-1.06722
-0.977695
-1.04082
-1.04846
-1.06588
-0.77772
-1.14945
-0.958515
-1.15159
-1.15761
-1.15177
-1.15115
-1.1215
-0.892374
-1.04572
-1.33289
-0.754521
-0.985547
-1.11744
-1.03907
-1.10294
-1.02658
-0.99302
-1.29398
-1.0872
-0.805446
-0.871878
-1.44468
-0.86433
-1.15525
-0.802501
-1.15776
-0.960029
-1.0069
-1.00313
-1.02236
-1.02258
-1.03806
-1.02336
-1.02721
-1.02336
-1.00387
-1.00768
-1.02786
-1.02858
-1.0429
-0.937799
-0.937698
-0.937167
-1.02371
-0.938878
-0.884648
-0.78443
-1.20915
-0.774655
-0.991421
-1.10939
-0.940539
-0.985545
-0.988834
-1.12129
-0.795589
-0.730525
-1.16123
-0.981476
-0.960089
-1.15108
-0.773692
-1.15145
-1.06633
-1.06655
-1.06914
-0.946374
-1.04537
-1.33207
-0.985397
-1.03935
-1.04481
-1.04614
-1.04995
-1.06624
-0.782507
-1.15143
-1.08343
-1.0467
-1.08166
-1.06689
-0.778691
-1.15348
-0.961619
-1.15779
-1.15715
-1.0281
-0.938775
-0.939342
-1.02837
-1.0237
-0.891063
-0.94116
-0.939641
-0.983168
-1.02334
-1.02754
-1.02955
-0.945247
-1.19863
-0.96497
-0.972852
-0.985713
-0.983288
-0.982516
-0.983394
-0.986164
-0.990076
-1.13537
-1.13357
-0.946044
-0.887708
-1.04292
-0.946417
-1.13428
-1.13589
-0.936725
-1.13545
-1.1336
-1.13314
-0.949212
-1.13394
-0.986885
-0.97543
-0.978621
-0.985616
-0.985771
-0.983507
-0.98677
-0.974198
-0.975028
-0.978069
-0.983703
-1.14071
-1.13713
-1.14117
-0.983923
-0.985872
-0.986902
-0.949202
-0.990391
-1.13633
-1.13505
-0.946364
-0.887666
-0.887438
-1.04257
-0.945946
-1.13641
-1.13767
-0.989909
-0.973299
-0.973409
-0.973508
-0.973616
-0.974135
-0.970444
-0.936321
-0.99161
-1.00288
-1.00439
-1.00349
-0.990452
-1.00383
-1.00343
-1.00397
-0.989205
-0.981761
-0.928541
-0.978262
-0.985047
-0.984937
-0.973695
-0.959855
-0.939498
-0.97754
-0.974099
-0.959776
-0.942858
-0.973361
-0.972004
-0.938508
-0.967766
-0.887962
-0.945102
-1.13334
-0.942053
-1.00038
-0.979957
-1.15512
-1.08423
-1.08708
-1.11719
-1.02627
-1.10257
-1.10387
-1.10239
-1.08453
-1.04403
-1.09945
-1.29265
-1.10261
-1.10494
-1.18416
-1.1546
-1.29923
-1.30043
-1.28023
-1.29647
-1.29439
-0.954728
-0.95852
-1.00321
-1.16277
-0.819375
-0.954665
-0.985655
-0.949198
-0.925377
-1.1378
-0.93744
-1.13403
-0.908401
-0.887453
-0.912661
-0.885419
-0.895612
-0.89995
-1.16574
-1.13206
-1.13601
-0.983799
-1.2945
-1.13705
-0.995357
-0.761188
-0.912738
-0.734575
-1.15316
-0.763786
-0.763261
-0.761797
-0.901694
-0.864459
-0.934605
-0.90004
-0.959422
-0.95128
-0.754648
-0.930966
-1.15131
-0.790749
-1.06402
-0.751461
-1.1143
-0.933509
-0.955521
-0.879849
-0.850909
-0.741965
-0.930928
-0.93209
-0.936445
-0.78796
-0.937777
-1.13573
-0.934128
0.992128
0.980449
0.991349
0.984627
0.97842
0.975803
0.975198
0.976422
0.979658
0.986561
0.973185
0.968014
0.720757
1.01658
1.15223
0.90548
1.00636
0.955503
1.19678
0.89568
1.14883
1.01075
0.848039
1.03605
1.02774
0.863335
1.03526
1.03166
0.864638
1.03489
1.03248
0.860686
1.03523
1.03178
0.862193
1.0324
1.03402
0.861247
1.02719
1.03831
0.851132
1.0121
1.01934
0.830187
0.949225
0.692649
1.25128
0.771643
0.900154
1.0138
0.750916
0.962743
0.990922
0.748022
0.983479
0.981625
0.753593
0.994447
0.953172
0.74713
0.984211
1.18207
0.819734
1.09861
1.03529
0.953682
0.958438
1.13603
0.949539
0.954344
0.954238
1.14542
0.956122
0.952742
0.937405
1.14681
0.974184
0.95391
0.90457
1.14917
1.00597
0.959594
0.866274
0.832946
0.731422
0.908693
1.07092
1.11304
1.123
1.12943
1.12724
1.12894
1.12905
1.12835
1.1304
1.12965
1.13031
1.12982
1.13064
1.12809
1.12881
1.12062
1.10375
1.04904
0.861268
0.97748
0.997225
1.02821
0.956322
0.720943
1.29049
0.997855
1.0567
0.993884
1.03175
1.15463
1.18277
1.10056
1.04945
1.05369
1.05002
1.10046
1.2907
1.05665
0.846361
0.857291
0.957187
0.86979
0.846827
1.01045
1.30115
1.03168
1.37542
0.993769
1.15464
0.977294
0.997285
1.05079
1.22759
1.20212
0.903626
1.16977
0.890723
1.12187
1.0288
0.720329
0.95539
0.987903
1.154
1.11506
1.14054
1.13068
1.13589
1.13308
1.13509
1.133
1.13611
1.13133
1.13838
1.1287
1.13963
1.12655
1.12427
0.972146
1.41025
0.988013
0.968758
1.11209
1.13332
0.948614
1.13501
1.13232
0.95156
1.13694
1.13257
0.951045
1.13728
1.13206
0.950197
1.13738
1.13148
0.948971
1.137
1.13029
0.945947
1.14006
1.11223
0.932346
1.16403
0.942596
1.14954
0.984927
0.709738
0.991532
0.947072
1.15201
0.96142
0.719494
1.02047
0.905217
1.1732
1.11193
1.14175
1.13764
1.13381
1.14431
1.12868
1.1474
1.13297
1.13208
1.13853
1.1294
1.14126
1.1195
1.13343
0.979013
1.41489
1.01665
0.960333
1.07325
1.23106
0.917028
1.21444
1.21139
0.917987
1.21298
1.21153
0.917624
1.22846
1.10461
0.948278
1.15931
1.11997
0.947237
1.14658
1.12807
0.944213
1.14369
1.11993
0.92821
1.14876
1.00864
1.1522
0.900333
0.732776
1.2268
0.852067
1.19501
1.15241
0.896217
1.01302
0.934583
0.814238
0.677412
0.863438
0.727358
1.05045
1.10769
0.76086
1.20334
1.11356
0.902754
1.22693
1.17056
0.89031
1.12166
1.05206
0.787098
0.944774
1.37613
0.993548
1.15452
1.03181
1.30118
1.01075
0.847192
0.957424
0.869785
0.805495
1.15987
0.857249
0.868044
0.800798
0.797981
1.1568
0.862893
0.862358
0.797186
0.800965
1.15673
0.868568
0.856859
0.804123
0.870107
1.15959
0.957192
0.846577
1.03197
1.01039
1.30166
1.03187
1.15455
0.992774
1.05702
1.28812
1.00129
1.0271
1.27642
1.02639
1.00203
1.28772
1.05663
0.846683
1.09635
1.18206
1.10052
1.43891
1.02793
0.951497
0.989217
0.944944
1.16509
1.11287
1.11271
1.11598
0.932207
1.16555
1.15329
0.990116
1.15009
0.943633
0.955727
1.03008
1.4519
1.10427
1.10057
1.43851
1.02793
0.951433
0.888987
1.05232
1.22721
1.20268
0.760793
1.10465
0.7876
1.0487
0.727697
0.99614
1.12175
1.03236
0.951014
0.988915
0.987846
1.14999
0.951952
1.03134
0.996447
0.976396
0.867341
0.892554
0.843615
0.813638
0.979285
0.918299
0.971082
0.978909
0.9935
1.00034
0.857423
1.00643
1.03636
1.16308
1.1743
1.1528
1.19104
0.907366
1.05147
1.02901
0.910377
0.762276
1.12719
1.13931
0.75933
1.21168
1.13641
0.915596
1.21117
1.13414
1.13521
0.914675
1.21361
0.788655
0.888459
0.890873
0.943527
0.790639
1.12898
0.893089
1.11612
0.922809
0.923798
0.894662
0.860078
1.00581
0.974285
0.964947
0.980085
0.977989
0.969943
0.936279
0.942296
0.977394
0.956111
1.15409
1.1653
1.11199
0.932744
1.11444
0.943394
1.14065
1.14092
1.13222
0.946495
1.12875
0.93917
1.13937
1.13519
1.13558
0.949745
1.12821
0.937181
1.14089
1.13409
1.13551
0.951089
1.1297
0.93434
1.13878
1.13582
1.13249
0.95131
1.13176
0.930432
1.13654
1.13822
1.12879
0.951189
1.13132
0.928576
1.13415
1.13969
1.12629
0.948332
1.13323
0.926092
1.11094
1.12198
0.981837
0.968916
0.986754
0.801425
0.834245
0.804627
0.835148
0.907622
1.4141
0.965043
0.885623
1.15729
0.885881
1.08918
0.766945
1.10423
1.13541
0.759145
1.12935
1.13765
0.767124
1.08243
1.28918
0.986627
1.12996
0.903676
0.907474
0.888069
0.941518
1.10828
1.05851
1.01713