/*--------------------------------*- C++ -*----------------------------------*\
| =========                 |                                                 |
| \\      /  F ield         | OpenFOAM: The Open Source CFD Toolbox           |
|  \\    /   O peration     | Version:  2306                                  |
|   \\  /    A nd           | Website:  www.openfoam.com                      |
|    \\/     M anipulation  |                                                 |
\*---------------------------------------------------------------------------*/
FoamFile
{
    version     2.0;
    format      ascii;
    arch        "LSB;label=32;scalar=64";
    class       volScalarField;
    location    "1.9";
    object      gradTz;
}
// * * * * * * * * * * * * * * * * * * * * * * * * * * * * * * * * * * * * * //

dimensions      [0 -1 0 1 0 0 0];

internalField   nonuniform List<scalar> 
5322
(
-0.0612729
-0.0556527
-0.0463449
-0.0500937
-0.0375376
-0.0270029
-0.0186221
-0.0123385
-0.0079294
-0.0051105
-0.00353329
-0.0030228
-0.00212092
-0.00301473
-0.00336281
-0.00287822
-0.00336459
-0.00269859
-0.00414371
-0.00497256
-0.00637406
-0.00782849
-0.0101007
-0.0124647
-0.0158218
-0.0190022
-0.0236117
-0.0280943
-0.0340743
-0.0393672
-0.0466215
-0.0531624
-0.0610442
-0.0667377
-0.0709642
-0.0627652
-0.0743852
-0.0732452
-0.0754671
-0.0554801
-0.0699229
-0.072182
-0.0543869
-0.0722057
-0.0714769
-0.0553583
-0.0732668
-0.0692716
-0.054801
-0.0721732
-0.0826201
-0.0557104
-0.0780542
-0.0686912
-0.0609444
-0.0649811
-0.0808722
-0.0637094
-0.0610058
-0.0647929
-0.0817026
-0.0645631
-0.0609875
-0.0632115
-0.0817137
-0.0668918
-0.0607931
-0.0601396
-0.0802099
-0.0714646
-0.0506594
-0.0744347
-0.0708325
-0.0697726
-0.0704277
-0.07009
-0.0700406
-0.0698702
-0.0710136
-0.0678506
-0.0661224
-0.0537564
-0.0557581
-0.0712337
-0.0457316
-0.0630072
-0.0926425
-0.0606018
-0.0606169
-0.0523775
-0.0645515
-0.0450466
-0.0474438
-0.0473755
-0.0614752
-0.0595999
-0.0561874
-0.0603833
-0.094179
-0.058807
-0.0595316
-0.0531031
-0.0608678
-0.0608217
-0.0664324
-0.0546762
-0.0574135
-0.0505853
-0.0379911
-0.0274015
-0.0188965
-0.0124868
-0.00797016
-0.00508571
-0.00399686
-0.00344324
-0.00248555
-0.00264689
-0.00382905
-0.00288868
-0.00249078
-0.00293418
-0.00289274
-0.0040193
-0.00302248
-0.00394074
-0.00286607
-0.00299315
-0.00387889
-0.00286248
-0.00293703
-0.00391782
-0.00290812
-0.00288435
-0.00393413
-0.00294426
-0.00289761
-0.00403598
-0.00303235
-0.00395148
-0.0028794
-0.00250252
-0.00289402
-0.00261326
-0.00249228
-0.00383468
-0.00265092
-0.00263764
-0.0024655
-0.00248558
-0.00385528
-0.0026418
-0.00263237
-0.00247158
-0.00248391
-0.00385156
-0.00264175
-0.00260941
-0.00249747
-0.00336682
-0.00287755
-0.00337364
-0.00459622
-0.00538049
-0.00306597
-0.00415369
-0.00270343
-0.00342251
-0.00218865
-0.00291709
-0.00302231
-0.00281762
-0.00317547
-0.003463
-0.00304033
-0.00436428
-0.00432661
-0.00504104
-0.00379827
-0.00503854
-0.0064382
-0.00644194
-0.00797651
-0.0059379
-0.00799216
-0.0101469
-0.0101518
-0.0125998
-0.00943589
-0.0126201
-0.0157922
-0.0158002
-0.0192942
-0.014607
-0.0193314
-0.0237154
-0.0237411
-0.0283535
-0.0217369
-0.0284263
-0.0341742
-0.0342415
-0.0398921
-0.0309781
-0.0400174
-0.0470882
-0.0472323
-0.0537066
-0.0420702
-0.0539219
-0.0610543
-0.0612038
-0.0602785
-0.0941787
-0.0587884
-0.0586079
-0.0532689
-0.0727945
-0.0726275
-0.0474473
-0.0474362
-0.0613551
-0.0600941
-0.05569
-0.0611042
-0.0940964
-0.0591723
-0.058543
-0.0534001
-0.060029
-0.0611159
-0.0561459
-0.0561263
-0.0504916
-0.0380076
-0.0274408
-0.0189256
-0.0125039
-0.00797924
-0.00509025
-0.00400016
-0.00344739
-0.00248202
-0.00247948
-0.00247778
-0.00247967
-0.00385127
-0.00263179
-0.00264155
-0.00256851
-0.00293834
-0.00432488
-0.00263219
-0.00385313
-0.00264359
-0.00429782
-0.00299049
-0.00387337
-0.00286434
-0.00257035
-0.00293922
-0.00387431
-0.00209674
-0.00290896
-0.00304222
-0.00303894
-0.00317743
-0.00432687
-0.00504347
-0.00644446
-0.00797905
-0.0101581
-0.0126016
-0.0158117
-0.0192965
-0.0237613
-0.028355
-0.0342797
-0.0398821
-0.0473081
-0.0536499
-0.0616335
-0.0595561
-0.0942233
-0.0606498
-0.056179
-0.0609223
-0.0540729
-0.0421031
-0.0470893
-0.0400848
-0.0310025
-0.0342032
-0.0284526
-0.0217518
-0.0237406
-0.0193411
-0.0146152
-0.0158095
-0.0126231
-0.00944025
-0.0101601
-0.00799076
-0.00594008
-0.00644951
-0.00503478
-0.0037985
-0.00437118
-0.00329673
-0.00436874
-0.00503817
-0.00379957
-0.00433063
-0.00317889
-0.00346578
-0.00281512
-0.00212022
-0.00303435
-0.00288538
-0.00437696
-0.00503709
-0.0064364
-0.00800426
-0.0101688
-0.0126329
-0.0158617
-0.0193454
-0.0238665
-0.0284344
-0.034519
-0.0398885
-0.047844
-0.053228
-0.0620013
-0.0599601
-0.0931834
-0.0637524
-0.0544834
-0.0665593
-0.0585378
-0.0409367
-0.0511735
-0.0430888
-0.0301066
-0.0369568
-0.0304134
-0.0210727
-0.0255544
-0.0206164
-0.0141415
-0.0169943
-0.0134395
-0.00912828
-0.010896
-0.00849534
-0.00574146
-0.00688925
-0.00538212
-0.00366636
-0.00459607
-0.00337662
-0.00337168
-0.00292162
-0.00300947
-0.00269646
-0.00343069
-0.00218555
-0.00249909
-0.00302533
-0.00281891
-0.00445349
-0.00521696
-0.00504633
-0.00503591
-0.00377639
-0.0043194
-0.00439627
-0.00293277
-0.0034661
-0.00323874
-0.00330277
-0.00322394
-0.0041439
-0.00319465
-0.00303603
-0.00428677
-0.00350948
-0.00330095
-0.00314647
-0.0030604
-0.00437233
-0.00503689
-0.00473597
-0.00645392
-0.00799194
-0.0101648
-0.0126228
-0.0116287
-0.0158227
-0.019328
-0.0237794
-0.0283978
-0.0256431
-0.0342979
-0.0399272
-0.0472695
-0.0537551
-0.0474479
-0.047456
-0.0357442
-0.0357858
-0.025803
-0.0257239
-0.0344816
-0.0399748
-0.0310184
-0.0404042
-0.0470205
-0.047644
-0.0535052
-0.0420723
-0.0547391
-0.0604159
-0.068215
-0.0585058
-0.09464
-0.0605883
-0.05745
-0.0551748
-0.0710753
-0.0450426
-0.0409541
-0.0564067
-0.0347899
-0.0471927
-0.0408075
-0.0251235
-0.0343603
-0.028442
-0.0174815
-0.023897
-0.0192447
-0.0117243
-0.0158308
-0.0124289
-0.00755817
-0.0101567
-0.00782323
-0.00475335
-0.0063539
-0.00493487
-0.00305645
-0.00415879
-0.00291305
-0.0027978
-0.00382009
-0.00361755
-0.0044377
-0.00582481
-0.00652992
-0.00823762
-0.0103798
-0.0129904
-0.0126042
-0.012652
-0.00941817
-0.0101857
-0.0101787
-0.00801192
-0.00592304
-0.00796479
-0.00741587
-0.00709691
-0.00450948
-0.0039459
-0.00472308
-0.0044365
-0.00423922
-0.00501774
-0.00508396
-0.00352623
-0.00303318
-0.00220054
-0.00367951
-0.00207195
-0.002979
-0.00345108
-0.00404391
-0.00619524
-0.00792533
-0.00790552
-0.0123559
-0.0125018
-0.00979989
-0.00928746
-0.00907534
-0.0113876
-0.0144298
-0.0162723
-0.019883
-0.0245426
-0.0292407
-0.0285352
-0.0284724
-0.0217399
-0.0238295
-0.023861
-0.0193748
-0.0145933
-0.0193502
-0.0176922
-0.01686
-0.0111238
-0.00980728
-0.0115913
-0.0113195
-0.0108071
-0.00738938
-0.00701052
-0.00670803
-0.007146
-0.00569274
-0.00623378
-0.00634814
-0.00513274
-0.00355309
-0.00303315
-0.00296272
-0.00278356
-0.00322957
-0.00269573
-0.00411768
-0.00409662
-0.00504406
-0.00472109
-0.00644747
-0.0064482
-0.00799281
-0.00594289
-0.00798418
-0.00740733
-0.0101611
-0.0101646
-0.0126201
-0.00944703
-0.0126216
-0.0116106
-0.0158152
-0.0158309
-0.0193234
-0.01463
-0.0193475
-0.0176121
-0.0237611
-0.0238003
-0.0283924
-0.0217796
-0.0284691
-0.0256325
-0.0342389
-0.0343536
-0.0399007
-0.0310425
-0.0401242
-0.0357084
-0.0470867
-0.0474111
-0.0536387
-0.0421137
-0.0540894
-0.0473271
-0.060922
-0.0614914
-0.0602138
-0.0560809
-0.0602433
-0.0536978
-0.0589442
-0.0568356
-0.0513837
-0.0703943
-0.0464298
-0.0600351
-0.0455467
-0.0435824
-0.0529484
-0.0529445
-0.0477068
-0.0510785
-0.0515362
-0.0452106
-0.0392253
-0.0384487
-0.0273886
-0.0279311
-0.0226879
-0.0190522
-0.0187491
-0.0186099
-0.0122986
-0.00789943
-0.00509604
-0.00352214
-0.00300917
-0.00213095
-0.00300407
-0.00265567
-0.00297912
-0.00300069
-0.00283872
-0.00293248
-0.00347382
-0.0025646
-0.00314837
-0.00301974
-0.0030368
-0.00317088
-0.00249696
-0.00313804
-0.00304459
-0.0030468
-0.00347604
-0.0024364
-0.00245791
-0.00245406
-0.00244141
-0.00243439
-0.00241807
-0.00389498
-0.00245054
-0.0024395
-0.00244006
-0.00389672
-0.00245419
-0.0035038
-0.00404594
-0.00402106
-0.00351377
-0.00350104
-0.00328027
-0.00475346
-0.00747706
-0.0117161
-0.0177395
-0.0257447
-0.0245008
-0.0217849
-0.0256709
-0.0251133
-0.0239797
-0.0260328
-0.0313928
-0.0357785
-0.040776
-0.0506955
-0.0421126
-0.0426361
-0.0332023
-0.0374809
-0.0303674
-0.0327001
-0.0332009
-0.0270928
-0.0378336
-0.0506259
-0.0658285
-0.065634
-0.0659674
-0.055991
-0.0515569
-0.0544488
-0.0605354
-0.0513695
-0.058738
-0.0849917
-0.0766961
-0.0746715
-0.0772276
-0.0491336
-0.0625966
-0.0656454
-0.0789099
-0.0505211
-0.0647263
-0.0659147
-0.0792858
-0.0507398
-0.0639219
-0.0667606
-0.0791381
-0.0519765
-0.0634091
-0.0711951
-0.0988018
-0.0787885
-0.0770726
-0.0977477
-0.0958985
-0.0761046
-0.0556014
-0.0780638
-0.0687482
-0.0609175
-0.0648509
-0.0694161
-0.0548322
-0.0720567
-0.082663
-0.0556978
-0.066166
-0.0537871
-0.0558059
-0.0712568
-0.0604482
-0.04526
-0.0550339
-0.0467039
-0.0344962
-0.0401282
-0.0340717
-0.0246984
-0.0282444
-0.0237097
-0.0169792
-0.0191252
-0.0158079
-0.0111779
-0.0124635
-0.0101418
-0.00712237
-0.00786425
-0.00638552
-0.00441463
-0.00499103
-0.00415442
-0.00294071
-0.00342557
-0.00267984
-0.00300007
-0.00291411
-0.00337339
-0.00460026
-0.00538266
-0.00366543
-0.00438248
-0.00287819
-0.00336912
-0.00302944
-0.00211839
-0.00280992
-0.00290986
-0.00346497
-0.00299057
-0.00303692
-0.00355886
-0.00513687
-0.00795947
-0.0079639
-0.0124192
-0.0188086
-0.0175987
-0.016896
-0.0161826
-0.0176703
-0.0218624
-0.0210535
-0.0140937
-0.0151818
-0.0154293
-0.0158576
-0.0158614
-0.0116562
-0.0126269
-0.0158023
-0.0146298
-0.0193482
-0.0237366
-0.0217743
-0.0284582
-0.034202
-0.0310217
-0.0400581
-0.0470802
-0.042076
-0.0538539
-0.0450774
-0.0457517
-0.0581777
-0.0582864
-0.0508303
-0.0378112
-0.0270726
-0.0186086
-0.0123081
-0.00791148
-0.00510504
-0.00353612
-0.00302336
-0.00211962
-0.00290863
-0.00298613
-0.00302305
-0.00353829
-0.00511422
-0.00793459
-0.0123593
-0.0186925
-0.0271921
-0.037977
-0.0509496
-0.0669136
-0.0664455
-0.0548948
-0.104892
-0.0770704
-0.0739116
-0.0659656
-0.0792578
-0.0508049
-0.0509427
-0.0552711
-0.0817704
-0.0525933
-0.0533991
-0.0544425
-0.0822234
-0.0528343
-0.0536346
-0.0540933
-0.0820823
-0.0543143
-0.0552637
-0.0608933
-0.104399
-0.0797528
-0.0778025
-0.0781483
-0.0774763
-0.0618564
-0.0576789
-0.0611552
-0.104014
-0.0604634
-0.0628519
-0.0816491
-0.0646501
-0.0609448
-0.063101
-0.0725831
-0.0543508
-0.0718053
-0.0718446
-0.0554845
-0.0729948
-0.0638831
-0.0609752
-0.0645589
-0.0701479
-0.0699117
-0.0705207
-0.0696014
-0.0610116
-0.0608776
-0.0662834
-0.0818005
-0.0703883
-0.0560026
-0.0749472
-0.0659063
-0.0559897
-0.0904246
-0.048685
-0.0632502
-0.0526819
-0.0609659
-0.0550326
-0.0429015
-0.0489204
-0.0423824
-0.0330999
-0.0360926
-0.0311125
-0.0232967
-0.0258149
-0.0214981
-0.0164054
-0.0174143
-0.0144564
-0.0105254
-0.0114504
-0.00920164
-0.00684989
-0.00715423
-0.00584154
-0.0041978
-0.00449539
-0.00378913
-0.00280463
-0.0030238
-0.00205853
-0.00365418
-0.00264956
-0.00219486
-0.00401975
-0.00289011
-0.003019
-0.00393092
-0.00286633
-0.00298384
-0.00386901
-0.00285469
-0.00293662
-0.00391077
-0.00291046
-0.00287173
-0.003924
-0.00213342
-0.0028315
-0.00347029
-0.00304789
-0.00329425
-0.00435673
-0.00379359
-0.00503394
-0.00503115
-0.00471315
-0.00642366
-0.00572918
-0.00798165
-0.00847814
-0.00622811
-0.0108726
-0.007538
-0.0133878
-0.00977181
-0.0169031
-0.0116492
-0.0205198
-0.014818
-0.0253491
-0.0173269
-0.0301683
-0.0215451
-0.0363897
-0.0246588
-0.0425277
-0.0300153
-0.0500374
-0.0336527
-0.0574659
-0.0400544
-0.0651861
-0.0437789
-0.051513
-0.0620089
-0.0605847
-0.047663
-0.0550806
-0.0402082
-0.0479823
-0.0465768
-0.0356605
-0.0409219
-0.0295427
-0.0348536
-0.0339411
-0.0256021
-0.029065
-0.0207774
-0.0242779
-0.0236482
-0.0176036
-0.019802
-0.0139722
-0.016165
-0.0157863
-0.0116153
-0.0129241
-0.00904218
-0.010386
-0.0101574
-0.00740917
-0.00820508
-0.0056838
-0.00654816
-0.0064446
-0.0047212
-0.00518342
-0.00362002
-0.00446922
-0.00431021
-0.00329738
-0.00280131
-0.00248971
-0.00218179
-0.00291288
-0.00299829
-0.00267522
-0.00341836
-0.0029247
-0.00321626
-0.00278491
-0.00296251
-0.00298693
-0.00289666
-0.00345975
-0.00303789
-0.00316561
-0.00327348
-0.00436708
-0.0036608
-0.00537131
-0.00394732
-0.00687865
-0.00474801
-0.00635197
-0.00412345
-0.00410267
-0.0043264
-0.00349442
-0.00428498
-0.00263766
-0.00384739
-0.00263011
-0.0025613
-0.00313947
-0.00303983
-0.0030139
-0.00304458
-0.00304512
-0.00432386
-0.00351293
-0.00329673
-0.00476642
-0.00476788
-0.00474663
-0.00645951
-0.00645828
-0.00472284
-0.00632902
-0.00412696
-0.00411413
-0.00433303
-0.00380347
-0.00505137
-0.00644007
-0.00594518
-0.00799414
-0.0101528
-0.00944849
-0.0102997
-0.00749649
-0.00744183
-0.0117444
-0.0177804
-0.0176755
-0.0177632
-0.011737
-0.00749323
-0.00742691
-0.00746918
-0.00474971
-0.0047176
-0.0050256
-0.00643377
-0.00688574
-0.00848731
-0.0108801
-0.0134004
-0.00754787
-0.0101445
-0.00623263
-0.00785848
-0.00475784
-0.00638745
-0.00395291
-0.00498725
-0.00440561
-0.00421692
-0.00584024
-0.00569616
-0.00718684
-0.00820803
-0.0074186
-0.0101623
-0.00938812
-0.0125722
-0.0126156
-0.0116312
-0.0157443
-0.0145637
-0.0192677
-0.0192752
-0.0175744
-0.0235836
-0.0216095
-0.028288
-0.0283033
-0.0254971
-0.0339568
-0.0297175
-0.039801
-0.0466435
-0.0403963
-0.0537111
-0.0600867
-0.0518462
-0.0576539
-0.0507129
-0.0380133
-0.0273952
-0.0188879
-0.0124806
-0.00796605
-0.0050832
-0.00399448
-0.00344012
-0.00247975
-0.00246759
-0.00248061
-0.00263731
-0.00431556
-0.00350944
-0.00350588
-0.00427635
-0.00263456
-0.00255894
-0.00314696
-0.00303005
-0.00318904
-0.00303043
-0.00429223
-0.00349731
-0.00327655
-0.00437599
-0.00366657
-0.00409815
-0.00405071
-0.00402173
-0.00347518
-0.00244133
-0.00243412
-0.00389646
-0.00241808
-0.00246112
-0.00385028
-0.00405144
-0.00476177
-0.00450691
-0.00321987
-0.00413178
-0.00448539
-0.00330447
-0.00431002
-0.00377229
-0.00505014
-0.00502281
-0.00474339
-0.00643244
-0.00593481
-0.00797709
-0.00741976
-0.0101313
-0.0094155
-0.0125923
-0.012581
-0.0115806
-0.015772
-0.014067
-0.0192655
-0.0236448
-0.0208966
-0.0282942
-0.0256588
-0.017685
-0.0116875
-0.00746248
-0.00474543
-0.00404664
-0.00401857
-0.00347184
-0.00400318
-0.00511482
-0.00405629
-0.00410224
-0.00405102
-0.00400475
-0.00511365
-0.00476402
-0.00473613
-0.00749071
-0.00742627
-0.011734
-0.0116293
-0.0123866
-0.0187327
-0.0272602
-0.0273992
-0.0382964
-0.0358158
-0.0348128
-0.0472555
-0.0591865
-0.0510161
-0.0732826
-0.0561306
-0.107428
-0.0756365
-0.0742521
-0.0696044
-0.0858158
-0.0782909
-0.0809507
-0.0778943
-0.106775
-0.0746818
-0.0738101
-0.0659071
-0.0789067
-0.050663
-0.0516944
-0.0558795
-0.0813275
-0.0523683
-0.0543003
-0.0552448
-0.0817741
-0.0526108
-0.0543776
-0.0550493
-0.0816257
-0.0542004
-0.0556538
-0.0764767
-0.0574231
-0.0474552
-0.0473954
-0.0539785
-0.0575379
-0.0407666
-0.0508319
-0.0341824
-0.0408985
-0.0489902
-0.0356934
-0.0463052
-0.0543105
-0.0476508
-0.0596283
-0.0647963
-0.0539558
-0.0505788
-0.0432577
-0.0535016
-0.0523213
-0.0678382
-0.071085
-0.0697606
-0.0603233
-0.0474628
-0.0597207
-0.0532895
-0.0599976
-0.0473946
-0.0597113
-0.0533412
-0.0600722
-0.0475411
-0.0597903
-0.0710055
-0.0694413
-0.061125
-0.0570514
-0.0684631
-0.0821959
-0.0617502
-0.0785589
-0.0797426
-0.0765769
-0.062825
-0.0604642
-0.0608858
-0.103477
-0.0611436
-0.0679066
-0.10003
-0.0804919
-0.0771099
-0.0617749
-0.0603931
-0.0767099
-0.0552966
-0.0550844
-0.0759588
-0.0563921
-0.0507633
-0.0505938
-0.0379994
-0.0274086
-0.0189012
-0.0124897
-0.00797179
-0.00508661
-0.00399743
-0.00344375
-0.00241837
-0.00243586
-0.00314265
-0.00301424
-0.00303245
-0.00386853
-0.00298739
-0.00249791
-0.00261049
-0.00288869
-0.00264772
-0.00249215
-0.00289336
-0.00402678
-0.00302415
-0.00413228
-0.0028705
-0.00393646
-0.00319023
-0.00316964
-0.00303076
-0.0042782
-0.00263528
-0.00263867
-0.00385147
-0.00247523
-0.00247384
-0.00263952
-0.00263239
-0.00255616
-0.00291238
-0.0039597
-0.002915
-0.00431482
-0.0035095
-0.00350579
-0.00322099
-0.00270672
-0.00323221
-0.00278289
-0.00297065
-0.00303199
-0.00355276
-0.00513836
-0.00797095
-0.0124138
-0.0187725
-0.0273061
-0.0381283
-0.0380827
-0.051171
-0.0512782
-0.0663839
-0.0553761
-0.0583616
-0.058662
-0.0942782
-0.0677239
-0.0746627
-0.0770126
-0.104611
-0.0546976
-0.0585789
-0.058734
-0.0557548
-0.0595332
-0.0605548
-0.0926566
-0.0610379
-0.0630086
-0.0524061
-0.0606208
-0.0709214
-0.0578288
-0.0470945
-0.0511223
-0.067017
-0.0668066
-0.0580517
-0.0583659
-0.0463459
-0.0334782
-0.0231935
-0.0155106
-0.0100241
-0.0098898
-0.00627545
-0.00627699
-0.00409925
-0.00412916
-0.00474145
-0.00741356
-0.0115845
-0.0175322
-0.0254926
-0.0355102
-0.0455335
-0.0448823
-0.0450372
-0.0327696
-0.0228274
-0.0152901
-0.0152711
-0.00988542
-0.0100123
-0.00635543
-0.00644291
-0.00689179
-0.00849066
-0.010889
-0.0134053
-0.00911012
-0.0101628
-0.00799203
-0.00573581
-0.00656985
-0.00475038
-0.00472123
-0.00502668
-0.00349917
-0.00429141
-0.0028626
-0.00327986
-0.00404941
-0.00409911
-0.00382968
-0.00248637
-0.00246579
-0.00315043
-0.00303785
-0.0030664
-0.00314261
-0.00241858
-0.00389844
-0.00314243
-0.00314048
-0.00256635
-0.00316918
-0.00314262
-0.00300933
-0.00302602
-0.0030379
-0.00318561
-0.00302709
-0.00303809
-0.00314995
-0.0031681
-0.00248118
-0.00264665
-0.00288401
-0.003825
-0.00260843
-0.00249275
-0.00409496
-0.0040524
-0.00401975
-0.00347139
-0.00400347
-0.00405394
-0.00476358
-0.00450872
-0.00395726
-0.00709122
-0.00623928
-0.00747039
-0.00740619
-0.0117016
-0.0116007
-0.0126163
-0.0158199
-0.0169517
-0.0205336
-0.0254608
-0.0301997
-0.020982
-0.0237511
-0.0193264
-0.0140983
-0.0160928
-0.011102
-0.00978922
-0.0168007
-0.0148507
-0.0177115
-0.0175854
-0.01776
-0.0176299
-0.0257671
-0.0256534
-0.0357461
-0.0357074
-0.0340321
-0.0306147
-0.0360211
-0.034003
-0.0239419
-0.016129
-0.0104406
-0.00657663
-0.00648879
-0.00638793
-0.00800908
-0.0102893
-0.0101092
-0.0125474
-0.0158834
-0.0155937
-0.0125487
-0.00801013
-0.00649611
-0.00648642
-0.00638452
-0.00513793
-0.00803553
-0.0125853
-0.019039
-0.0189867
-0.0235531
-0.0231003
-0.0275217
-0.0334064
-0.032722
-0.0381172
-0.0451521
-0.0459966
-0.0473489
-0.0724042
-0.0513801
-0.0764435
-0.0573576
-0.0560953
-0.0729178
-0.0540359
-0.0755653
-0.0782476
-0.0810667
-0.0776319
-0.105984
-0.0746241
-0.0679417
-0.0638466
-0.0815237
-0.0824195
-0.0605741
-0.0681268
-0.0788216
-0.0823663
-0.0762549
-0.0746045
-0.10537
-0.0779682
-0.081314
-0.0815312
-0.0817422
-0.0813622
-0.0776569
-0.0815947
-0.072829
-0.0667632
-0.0791404
-0.0520037
-0.0507225
-0.0550597
-0.0816475
-0.0541563
-0.0531621
-0.0541053
-0.0821267
-0.0542213
-0.053405
-0.0537448
-0.0819471
-0.0554498
-0.0610241
-0.103801
-0.0820488
-0.0767802
-0.0630581
-0.060391
-0.0759768
-0.0563643
-0.0507547
-0.0381197
-0.0274984
-0.0189674
-0.0125356
-0.00800247
-0.00511055
-0.00648707
-0.00656789
-0.00573739
-0.00798817
-0.0101512
-0.00911279
-0.0126088
-0.015804
-0.0169388
-0.0205264
-0.0254429
-0.0301901
-0.0173791
-0.0237196
-0.0148369
-0.0191244
-0.011676
-0.0158141
-0.00977968
-0.01246
-0.0111638
-0.0106743
-0.0144084
-0.0140012
-0.0175097
-0.0197978
-0.0176159
-0.0236466
-0.0215601
-0.0283396
-0.0283279
-0.0255795
-0.0337926
-0.0307021
-0.0397854
-0.0355299
-0.0463952
-0.0416543
-0.0536877
-0.0537872
-0.0474134
-0.0601037
-0.0533364
-0.0598615
-0.0599423
-0.0474289
-0.0536813
-0.0537267
-0.0597856
-0.0532766
-0.0562686
-0.0475452
-0.0356848
-0.025711
-0.017727
-0.0117177
-0.00748396
-0.00708778
-0.0110964
-0.0116994
-0.0115938
-0.0177077
-0.0175751
-0.0193131
-0.0237298
-0.0209877
-0.028408
-0.0341997
-0.0367053
-0.0425737
-0.0507956
-0.0575502
-0.0341777
-0.0467328
-0.0302321
-0.0401362
-0.0248439
-0.0340881
-0.0216153
-0.0282487
-0.0246741
-0.0235783
-0.0310513
-0.0297724
-0.0366249
-0.0406753
-0.0356943
-0.0463084
-0.0415633
-0.0542702
-0.0535126
-0.0474674
-0.0602731
-0.0530468
-0.0596551
-0.0647656
-0.0476588
-0.0539426
-0.0505322
-0.0534625
-0.0522852
-0.055476
-0.0507894
-0.04321
-0.0452235
-0.0550416
-0.0604834
-0.0403828
-0.0469749
-0.0354031
-0.0254106
-0.0174731
-0.0115429
-0.00738479
-0.00472205
-0.00322078
-0.0027838
-0.00300251
-0.00267932
-0.00206169
-0.00249493
-0.00302984
-0.0028032
-0.00366249
-0.00219337
-0.00264457
-0.00346228
-0.00323321
-0.0029235
-0.00329915
-0.00432573
-0.00379862
-0.00502618
-0.00473174
-0.00643052
-0.00592938
-0.00798164
-0.00796395
-0.00739533
-0.0101374
-0.00909804
-0.0125896
-0.00999842
-0.00987463
-0.0101384
-0.00628254
-0.00643946
-0.00510392
-0.00509906
-0.0035179
-0.00300797
-0.00298626
-0.00300082
-0.00303096
-0.002985
-0.00345514
-0.00281562
-0.00378993
-0.00362938
-0.00518512
-0.00472927
-0.00644738
-0.00591224
-0.00796167
-0.00799284
-0.00743467
-0.0101342
-0.00942217
-0.012596
-0.011609
-0.0157463
-0.0145556
-0.0192644
-0.0192627
-0.0175429
-0.0235839
-0.0224651
-0.0151867
-0.0157493
-0.0122847
-0.012274
-0.00790223
-0.00633079
-0.00646047
-0.00413472
-0.00439888
-0.00352948
-0.00406188
-0.00451236
-0.00503754
-0.00509715
-0.00621512
-0.00656916
-0.00794449
-0.00679934
-0.00924288
-0.00905138
-0.0129375
-0.0116237
-0.0157914
-0.0145152
-0.0192592
-0.019301
-0.0176093
-0.0235708
-0.0216191
-0.0283001
-0.0255302
-0.0338333
-0.0306998
-0.039781
-0.0398331
-0.0355042
-0.0463898
-0.0356418
-0.0333425
-0.0234976
-0.0230828
-0.0189736
-0.0125397
-0.00800506
-0.00511247
-0.00638512
-0.0064856
-0.010283
-0.0104244
-0.00748737
-0.0117236
-0.017736
-0.023872
-0.0235366
-0.0158722
-0.0155858
-0.0101043
-0.0102875
-0.00649029
-0.00593811
-0.0064477
-0.00473252
-0.00643896
-0.00798616
-0.00742281
-0.0101371
-0.0101474
-0.00798123
-0.0079848
-0.0074365
-0.0101379
-0.010164
-0.00799463
-0.00645912
-0.00474331
-0.00643595
-0.00504654
-0.00503064
-0.00503547
-0.00503741
-0.00473857
-0.00644441
-0.00643785
-0.00593575
-0.00797382
-0.00743024
-0.0101465
-0.010139
-0.00942426
-0.0125876
-0.0116273
-0.0157706
-0.0157502
-0.0157475
-0.0157615
-0.0116124
-0.0126047
-0.012599
-0.00942734
-0.0126011
-0.0116352
-0.0157481
-0.0157959
-0.012618
-0.00939636
-0.0101643
-0.0104091
-0.00741907
-0.00796573
-0.00591712
-0.00644829
-0.00657621
-0.00472889
-0.00505148
-0.00502477
-0.00439546
-0.003298
-0.00432857
-0.00380129
-0.00436904
-0.00329505
-0.00436109
-0.00379951
-0.00433204
-0.00329466
-0.00438392
-0.00502462
-0.00503769
-0.00376984
-0.00413202
-0.00350058
-0.00300139
-0.00213837
-0.00298656
-0.00284775
-0.00291719
-0.0029231
-0.00213011
-0.0030016
-0.00300382
-0.00284443
-0.00299365
-0.00214005
-0.00393996
-0.00293822
-0.00286785
-0.00255798
-0.00347021
-0.00314203
-0.00304944
-0.00305447
-0.00313397
-0.00292902
-0.00322238
-0.00345765
-0.00248757
-0.00293416
-0.00393477
-0.00286794
-0.00427399
-0.00350317
-0.00476018
-0.0047642
-0.00748779
-0.0117241
-0.0158737
-0.0145712
-0.0192756
-0.0175771
-0.0235776
-0.0236017
-0.0235741
-0.0236733
-0.0176143
-0.0192848
-0.0193037
-0.0145287
-0.0157946
-0.016216
-0.0116249
-0.0125801
-0.012942
-0.00906193
-0.00925399
-0.0114352
-0.0106914
-0.0144244
-0.0175331
-0.0162397
-0.0216377
-0.025849
-0.0236123
-0.0310852
-0.0366653
-0.0329153
-0.0423317
-0.0434211
-0.0383539
-0.0318562
-0.0275226
-0.0223841
-0.0189106
-0.0150916
-0.0124726
-0.00979552
-0.0079528
-0.00680734
-0.00720029
-0.00820935
-0.00570336
-0.00584522
-0.00451978
-0.00422538
-0.00504172
-0.00621922
-0.00406323
-0.00379349
-0.00363394
-0.00448804
-0.00330332
-0.00431072
-0.00377505
-0.00413905
-0.00352407
-0.00303134
-0.00219604
-0.00264952
-0.00366221
-0.0020628
-0.00303346
-0.0028171
-0.0034551
-0.00298538
-0.00249675
-0.00280438
-0.0032319
-0.00292815
-0.00346204
-0.00298576
-0.00300362
-0.00350503
-0.00508164
-0.00509008
-0.00790763
-0.0123164
-0.0186046
-0.0176173
-0.0236518
-0.0243548
-0.0198059
-0.0192718
-0.0153255
-0.00996101
-0.00634094
-0.00632059
-0.00787931
-0.012239
-0.0184531
-0.0227019
-0.0215805
-0.0283287
-0.025586
-0.0337907
-0.0340161
-0.0338975
-0.0351663
-0.0256189
-0.0283591
-0.0290688
-0.0208588
-0.0173848
-0.0230318
-0.0227727
-0.0326472
-0.033042
-0.0342228
-0.0367314
-0.0425802
-0.0302561
-0.0338767
-0.0243851
-0.0216337
-0.0257036
-0.0255867
-0.0284317
-0.0356858
-0.0356701
-0.0400501
-0.029932
-0.0338968
-0.0257233
-0.0356984
-0.0459246
-0.0451767
-0.033393
-0.0327197
-0.0230907
-0.0235288
-0.0275068
-0.027589
-0.0275226
-0.018988
-0.0158986
-0.0158725
-0.0102837
-0.0101032
-0.0102822
-0.0104209
-0.0160869
-0.0141027
-0.01547
-0.0100185
-0.00989988
-0.00992872
-0.00997488
-0.00630229
-0.00628491
-0.00410245
-0.00412784
-0.00296491
-0.00635717
-0.015346
-0.0152943
-0.0228057
-0.0228981
-0.0230606
-0.0328322
-0.0326895
-0.0330768
-0.0230543
-0.0400058
-0.0471756
-0.0407789
-0.0538975
-0.0455842
-0.0449355
-0.0581693
-0.0583431
-0.0577866
-0.0710265
-0.0959539
-0.0977026
-0.0555945
-0.0711764
-0.09882
-0.0787719
-0.0618727
-0.0774536
-0.0783094
-0.0629495
-0.0608708
-0.104577
-0.0802757
-0.0776614
-0.1012
-0.0864897
-0.0865739
-0.0815605
-0.0782729
-0.0542692
-0.0757556
-0.0562054
-0.0506473
-0.0381174
-0.0334324
-0.0235739
-0.0235355
-0.0257689
-0.0256974
-0.0255705
-0.0356772
-0.0356495
-0.0338626
-0.0243732
-0.0167921
-0.0243334
-0.0290565
-0.0256168
-0.0338921
-0.0306472
-0.0400131
-0.0397717
-0.0355918
-0.0462849
-0.041629
-0.0464062
-0.035671
-0.0257015
-0.0235171
-0.0238628
-0.0338847
-0.0299406
-0.0333897
-0.0327157
-0.0230876
-0.0155839
-0.0158655
-0.0117162
-0.00748272
-0.0047606
-0.00645111
-0.00630128
-0.00798079
-0.00411713
-0.00504588
-0.00437233
-0.00300382
-0.0031443
-0.00292735
-0.00211195
-0.00301793
-0.00353093
-0.00989873
-0.00994347
-0.0101626
-0.00791615
-0.00978833
-0.0114187
-0.0124596
-0.0123286
-0.0150804
-0.0162008
-0.0188912
-0.0162169
-0.0216134
-0.020835
-0.0258163
-0.022367
-0.027495
-0.0270411
-0.0186231
-0.0152973
-0.0157913
-0.0152192
-0.0157593
-0.0185067
-0.0226589
-0.0236646
-0.0225115
-0.0283026
-0.0268239
-0.0321589
-0.0340001
-0.0318337
-0.0351378
-0.038319
-0.0328718
-0.0422912
-0.0408637
-0.0489577
-0.0433971
-0.0376763
-0.0502822
-0.0615959
-0.0614018
-0.0616369
-0.0666732
-0.0630844
-0.0556652
-0.0436147
-0.0467223
-0.0372772
-0.0496883
-0.0609898
-0.0677151
-0.064188
-0.0551626
-0.0430455
-0.0318569
-0.0398195
-0.0338498
-0.0268394
-0.0185197
-0.0372974
-0.0497463
-0.0611284
-0.0680346
-0.0642464
-0.0551645
-0.0429971
-0.0317972
-0.0338317
-0.0323221
-0.0227938
-0.0153931
-0.0115155
-0.00737364
-0.00471425
-0.00438184
-0.00717494
-0.0174052
-0.0252218
-0.0350024
-0.0438226
-0.0559157
-0.0614972
-0.0692829
-0.063962
-0.0521521
-0.0582244
-0.0626058
-0.0609943
-0.0498233
-0.0494799
-0.0371347
-0.0267199
-0.0184321
-0.0122226
-0.00786694
-0.0050734
-0.00507571
-0.0035077
-0.00412739
-0.00412507
-0.00300178
-0.00346865
-0.00297983
-0.00302615
-0.00351493
-0.00507574
-0.00633303
-0.00591021
-0.00794884
-0.00799317
-0.00748273
-0.00648788
-0.00638238
-0.00400217
-0.00647949
-0.00656335
-0.00450288
-0.00321629
-0.00412697
-0.00459196
-0.00305778
-0.00708293
-0.0104147
-0.010284
-0.0100997
-0.0102714
-0.01585
-0.0155789
-0.015869
-0.0117173
-0.0177286
-0.0177343
-0.0257161
-0.0333734
-0.030716
-0.0338617
-0.0255302
-0.0338097
-0.039838
-0.0355237
-0.0463221
-0.0464316
-0.0397606
-0.0398612
-0.0355956
-0.0462645
-0.0467486
-0.0397641
-0.0306755
-0.0400412
-0.0406907
-0.0298051
-0.0248506
-0.0322199
-0.0270144
-0.0376389
-0.0502264
-0.0508192
-0.0554862
-0.0613985
-0.0616505
-0.0615319
-0.0666991
-0.063078
-0.0557313
-0.0436911
-0.0371682
-0.0267461
-0.0319498
-0.0225798
-0.0283298
-0.0282948
-0.0283229
-0.0282969
-0.0255856
-0.0339129
-0.0338323
-0.0307165
-0.0397986
-0.0356204
-0.0465144
-0.0463944
-0.0416636
-0.0536693
-0.0538908
-0.0537607
-0.0416099
-0.0459341
-0.04521
-0.0381289
-0.0382012
-0.0441722
-0.0506472
-0.0474627
-0.0474751
-0.0727609
-0.0534019
-0.05087
-0.0755948
-0.0781656
-0.0813462
-0.0776866
-0.0814563
-0.0817801
-0.0777803
-0.053316
-0.0746604
-0.0545108
-0.0732656
-0.0735798
-0.0732713
-0.0734983
-0.072865
-0.0633715
-0.080713
-0.105413
-0.0558826
-0.0782789
-0.0854625
-0.0813476
-0.0866156
-0.0812333
-0.077087
-0.10248
-0.0803738
-0.0556497
-0.0611045
-0.10408
-0.0605207
-0.0758262
-0.0553952
-0.0738832
-0.0546398
-0.050749
-0.0442033
-0.0451713
-0.0451803
-0.0459114
-0.0451558
-0.0333587
-0.0451683
-0.0442442
-0.0327199
-0.0333787
-0.0235249
-0.023846
-0.0257196
-0.0357223
-0.0356852
-0.0451696
-0.0475543
-0.0450593
-0.0404069
-0.0664848
-0.0457404
-0.0583081
-0.0607504
-0.0546378
-0.0581022
-0.0645482
-0.0728611
-0.0531632
-0.050706
-0.0757765
-0.0562109
-0.0546432
-0.0734935
-0.0531544
-0.074855
-0.0778889
-0.0782453
-0.0815407
-0.0729711
-0.0806782
-0.105346
-0.0782707
-0.0813708
-0.0815717
-0.0816863
-0.0818973
-0.0778838
-0.0536408
-0.0748543
-0.0798786
-0.0817383
-0.0798302
-0.0780052
-0.0535007
-0.0750529
-0.0547752
-0.0738773
-0.0740919
-0.0667039
-0.0475825
-0.0475501
-0.0665491
-0.0662277
-0.0452138
-0.0476834
-0.047555
-0.0562751
-0.0661971
-0.0664626
-0.066743
-0.0615412
-0.0725795
-0.0548036
-0.0428826
-0.037442
-0.0269334
-0.0185654
-0.0122918
-0.00788853
-0.00995203
-0.0126144
-0.01256
-0.00938799
-0.0110921
-0.0160768
-0.0145154
-0.0192375
-0.0193046
-0.0176074
-0.0236301
-0.0235844
-0.0192652
-0.0145672
-0.0192861
-0.015261
-0.0122201
-0.00787083
-0.00992957
-0.0099264
-0.006318
-0.0152661
-0.0184165
-0.0266869
-0.0370793
-0.0431566
-0.0537937
-0.0536018
-0.0537829
-0.0431185
-0.0319226
-0.0225677
-0.0216251
-0.0226549
-0.0283534
-0.0282832
-0.0215594
-0.0243595
-0.0167823
-0.0338644
-0.0306462
-0.0398228
-0.0398949
-0.0320847
-0.0316314
-0.0223058
-0.0150587
-0.00977576
-0.00620165
-0.00405011
-0.00297757
-0.00344636
-0.00502855
-0.00794007
-0.0124512
-0.0153095
-0.0188829
-0.0274236
-0.0381445
-0.0434183
-0.0555251
-0.0531995
-0.0552556
-0.0494093
-0.049532
-0.0608181
-0.0676517
-0.0641535
-0.0552629
-0.0607147
-0.0674683
-0.0643716
-0.0607098
-0.0685495
-0.0641909
-0.0683973
-0.0338556
-0.0416414
-0.0534771
-0.0415954
-0.0504727
-0.0620019
-0.0758077
-0.0799217
-0.0803652
-0.0854509
-0.0812182