/*--------------------------------*- C++ -*----------------------------------*\
| =========                 |                                                 |
| \\      /  F ield         | OpenFOAM: The Open Source CFD Toolbox           |
|  \\    /   O peration     | Version:  2306                                  |
|   \\  /    A nd           | Website:  www.openfoam.com                      |
|    \\/     M anipulation  |                                                 |
\*---------------------------------------------------------------------------*/
FoamFile
{
    version     2.0;
    format      ascii;
    arch        "LSB;label=32;scalar=64";
    class       volScalarField;
    location    "1.9";
    object      gradTx;
}
// * * * * * * * * * * * * * * * * * * * * * * * * * * * * * * * * * * * * * //

dimensions      [0 -1 0 1 0 0 0];

internalField   nonuniform List<scalar> 
5322
(
-0.0180936
0.00104441
0.00110105
-1.1293e-05
-7.63348e-05
-6.49143e-05
-4.47724e-05
-3.04757e-05
-2.16951e-05
-1.32794e-05
-6.28368e-06
3.57336e-05
4.99628e-05
-0.00067761
-7.60249e-06
0.00129203
-0.00100487
1.65531e-05
-0.000839351
0.000805731
-0.00107231
0.00145921
-0.00154028
0.00240018
-0.00249674
0.00357676
-0.00360681
0.00536449
-0.00540071
0.00740918
-0.0070423
0.0105811
-0.00780768
0.0153192
0.00139312
0.0228576
0.0162154
-0.00642441
0.0177755
-0.00106075
-0.0168739
0.016914
-0.00102396
-0.0179824
0.017895
-0.000610049
-0.0191088
0.0168458
-0.000393258
-0.020064
-0.0199348
-0.0286029
-0.0095142
0.0180084
-0.00118997
-0.0293855
-0.00090845
0.0279165
-0.000336634
-0.0279102
-0.000120459
0.0271892
-0.000140907
-0.0274119
3.11525e-05
0.0268319
0.000404366
-0.0271499
0.00145019
0.0224093
0.00133086
-0.0212354
0.0241228
-0.0248513
0.0239127
-0.0243629
0.0243818
-0.0243998
0.0277998
-0.0204069
0.00956919
-0.0149585
-0.0101291
0.0156841
0.00128337
-0.00679076
0.0114925
-0.0318236
-0.0099318
0.034784
-0.00158416
0.000326977
0.000565596
0.00379792
0.0202157
-0.00396178
0.00034858
-0.00138026
0.0118239
-0.0280975
-0.0280327
0.0572569
-0.00139924
0.0156459
0.0255506
0.00063008
0.000286423
0.000211459
0.000101591
3.18763e-05
2.16903e-06
-7.99339e-06
-1.16455e-05
-1.27533e-05
7.18239e-06
-6.42236e-06
-0.000414962
-0.000397989
5.38978e-05
0.000245425
8.24883e-06
0.000358551
-0.000431158
-3.40035e-05
-0.000111537
0.000671511
0.000544519
0.000141905
0.000428912
0.000268061
0.000200091
0.00046107
0.000221999
0.000239228
0.00046896
0.000191813
0.000384651
0.000533682
0.000599815
2.48891e-05
-0.000448517
1.86675e-05
0.000310682
-0.000385577
-0.00042374
7.12673e-05
0.000161059
8.21443e-05
-0.000330838
-0.000365307
8.141e-05
9.41749e-05
0.000117886
-0.00036154
-0.00033879
8.23849e-05
5.61311e-05
0.00019536
-0.000379766
0.000501011
-0.00114474
-0.00150881
0.00156352
-0.00212348
-0.000111289
-0.00120774
2.57485e-05
0.00107407
-0.000247391
0.00112373
0.000552669
0.000830083
-0.00137506
0.000507485
-0.00118792
0.000931688
0.00121048
-0.00176062
0.000134398
-0.00149668
0.00165848
0.00206259
-0.00273011
0.000136494
-0.00228941
0.00275627
0.00337013
-0.00430403
0.00021969
-0.00359525
0.00436971
0.00531422
-0.00663775
0.000325922
-0.00554766
0.00656914
0.00801623
-0.00992188
0.000457054
-0.0083097
0.00934969
0.0115261
-0.0143075
0.000629688
-0.0119635
0.0125675
0.0157601
-0.0196067
0.000882694
-0.0161784
0.0156214
0.0194572
-0.00350153
0.0113133
-0.027818
-0.0283713
0.0575117
-0.00247147
-0.0026392
0.00066059
0.00412657
0.0201272
-0.00292366
0.000553074
-0.00349535
0.0108507
-0.0282879
-0.0279005
0.0571611
-0.00183364
0.0156372
0.000324123
0.000457406
0.000251491
0.000133416
5.05215e-05
1.09705e-05
-4.32791e-06
-1.03203e-05
-1.1664e-05
7.03884e-06
-6.21135e-06
0.000324016
-0.000362324
0.00036331
-0.000323188
1.76776e-06
0.00032229
-0.000299348
3.31639e-08
-0.000357441
7.03341e-07
-0.000320189
8.55541e-07
0.000300909
1.21743e-05
0.000332723
-2.8083e-05
-0.000362098
5.10726e-07
0.000357742
-1.15053e-08
4.26458e-07
0.000660583
-0.00123401
0.0012352
-0.00121696
0.00150539
-0.00185881
0.00242801
-0.00302764
0.00389319
-0.00482999
0.00609648
-0.00743303
0.00920944
-0.0109627
0.0133605
-0.015432
0.0184981
-0.020408
0.0240361
-0.013986
0.000352661
0.0141772
0.000412434
-0.0234029
0.0198925
0.000119293
-0.0179311
0.0151223
7.27061e-05
-0.0129471
0.010766
4.42824e-05
-0.0089252
0.00729966
2.61043e-05
-0.00590784
0.00474052
1.61153e-05
-0.0037691
0.00297174
1.14912e-05
-0.00234338
0.00183514
8.19627e-06
-0.00144608
2.2458e-06
0.00145008
-0.00182938
-5.82115e-06
-0.00149945
0.00121843
-2.68768e-06
-0.000665099
-4.32246e-05
0.000674827
-0.00127853
0.00144434
-0.00183168
0.00231096
-0.0029272
0.00372405
-0.00464252
0.00585206
-0.00712767
0.00887759
-0.0104918
0.0129723
-0.0146943
0.0181334
-0.0191558
0.0236557
-0.0138218
-0.00340424
0.00580939
0.000647182
-0.0220285
0.0174457
0.000141849
-0.0163862
0.0136452
-5.92009e-05
-0.0114625
0.00963131
-8.93245e-05
-0.00783922
0.00648096
-7.47114e-05
-0.00519156
0.00421108
-6.56157e-05
-0.00331433
0.0026656
-5.95956e-05
-0.00206031
0.00167677
-6.20178e-05
-0.00127164
0.000997816
1.06609e-05
-0.000333975
0.000555298
0.000920363
-3.08874e-05
9.81691e-05
-0.000170453
0.000515515
-0.00159575
0.00142048
-0.00213314
-0.00143709
-0.00179155
0.000141504
0.000986415
0.0010993
-0.00134578
0.000487218
-0.00119244
-0.000111818
4.13791e-05
-0.000447038
3.57566e-05
-1.89594e-05
-0.000460637
3.77686e-06
-0.00010752
-0.00122511
-0.0013293
0.00112901
-0.00174103
-6.66425e-05
0.00199588
-0.00271046
0.00331122
-0.00428054
-0.000228262
0.00525497
-0.00661141
0.00793955
-0.00989193
-4.82885e-05
0.0114
-0.0142094
0.0154867
-0.0191924
0.00397612
0.000651852
0.000148128
0.000188092
-0.000130916
-2.00703e-05
0.0118251
-0.0145875
0.000725947
-0.0118336
0.0116808
0.0161721
-0.0192667
0.0011339
-0.0169432
0.0138318
0.0277828
-0.00230598
0.00139448
-0.0305041
-0.0283536
0.0546717
-0.00371404
0.000543211
0.000986181
-0.0130123
0.00254398
0.00751924
-0.00781693
0.00050906
0.00582284
-0.00518463
1.42727e-05
0.00387464
-0.00359077
-4.95247e-05
0.00240059
-0.00230423
-8.63573e-05
0.00159457
-0.00142037
-0.000104919
0.00105839
-0.000741772
-0.000107475
0.00086894
0.000300898
0.000211183
-3.63042e-05
-1.79095e-05
0.000462
-0.000193562
0.00247811
-0.00329933
0.00411173
-0.00521639
-0.00337007
-0.00439764
0.000223815
0.00270361
0.00340148
-0.00278125
0.000139943
-0.00213984
-0.000104717
-5.23692e-05
-1.58352e-05
-4.88754e-05
-7.88341e-05
0.000106669
6.88832e-05
-3.72339e-06
-0.000434233
-0.00013505
0.000552146
0.000794659
0.000676753
0.000238519
0.00113777
0.000412016
0.000374953
0.000317004
-0.000268793
-0.000684708
-0.00101473
-0.000505566
0.000366557
-0.000434607
5.9281e-05
0.000823789
-0.000734768
0.00651566
-0.00805594
0.00988622
-0.0121366
-0.00793874
-0.0101892
0.000488263
0.00631019
0.00819971
-0.00680232
0.00033736
-0.00523226
-0.000170214
-6.22546e-05
-7.24184e-05
-9.98364e-05
-0.000246965
-4.63741e-06
-6.47711e-05
-0.000164668
1.02831e-05
-1.36632e-05
0.00059469
3.40223e-05
-7.58175e-05
-1.00924e-05
1.85478e-05
8.40523e-06
-3.22942e-05
6.96868e-05
-0.000803027
-4.47022e-05
-1.94589e-05
-5.97428e-06
-1.07642e-05
0.00186609
8.96847e-06
-0.00241867
0.00235273
-0.00295842
-4.11293e-06
0.00304599
1.86134e-05
-0.00387767
0.00379037
-0.00471382
2.44771e-06
0.0048678
3.11734e-05
-0.00606927
0.00595198
-0.00724932
1.43542e-05
0.00750574
5.11344e-05
-0.00916578
0.00900939
-0.0106768
3.6942e-05
0.0110938
7.34095e-05
-0.0132953
0.0130896
-0.0149773
7.99481e-05
0.015621
4.52837e-05
-0.0183853
0.018111
-0.0197118
0.000130115
0.020493
-0.000156849
-0.0238135
0.02348
-0.014056
-3.1642e-05
0.0139394
-0.000977222
-0.00230575
-0.00183886
-0.00276919
-0.0278606
0.0058769
0.0039148
-0.00215808
-0.00433889
-0.00145411
-0.0226344
0.0051641
-0.00906633
-0.0123308
-0.00245585
-0.0037195
-0.00482948
-0.00259203
-0.00138378
0.000660466
-0.000781144
-0.00155058
-0.00144578
-0.000943329
-0.000664799
-0.000461496
-0.000137566
0.000656884
0.000689538
0.000692868
0.000796958
0.00105616
0.00100823
0.000736966
0.000742312
0.000506796
-0.000445925
0.000140414
-5.0905e-05
-3.53694e-05
0.000127549
-0.000388525
-8.0769e-07
-2.88561e-07
-8.19173e-07
8.59627e-07
-0.000247707
-0.000285347
-0.000283849
-0.000249702
0.000249669
-0.000204422
9.64844e-06
0.000287236
-0.000239977
-0.000240017
9.82737e-06
0.000285302
7.41521e-07
1.63753e-06
1.80426e-06
1.62218e-06
-1.16867e-05
8.20293e-06
-4.35118e-06
-1.94425e-06
6.11323e-06
2.39213e-05
6.0208e-05
3.76937e-05
-6.11805e-05
-0.000404038
0.00021303
-0.000250563
0.00160804
-0.00225213
0.0145538
-0.0175838
0.0208584
-0.000196823
-0.00594443
-0.00113102
0.00165371
4.88903e-05
0.000497015
0.0007931
-0.00242595
-0.00437663
-0.00847705
-0.0196603
-0.0202392
-0.0462289
-0.0188179
-0.0160582
-0.000284672
-0.0062053
0.00575178
-0.0405965
-0.0247477
-0.0120134
0.0177596
0.00142041
0.000761874
-0.0181708
0.0191359
0.00012798
-0.00237153
-0.0198286
0.0192
3.89465e-05
-0.00262071
-0.0193602
0.0191443
0.000155732
-0.00420901
-0.0184816
0.0136658
-0.0117268
0.0101864
0.00777007
0.0220251
-0.010358
-0.00576224
0.00324136
0.0124991
-0.0380616
-0.00185727
-0.0221065
0.0214034
0.0205725
0.0189025
0.0238918
0.0105925
0.00169706
0.00867732
0.0126676
0.0199298
-0.00690276
0.00174896
0.0116666
-0.00746266
0.000117807
0.0075932
-0.00554264
1.55503e-06
0.00522894
-0.00370628
2.17627e-05
0.00355054
-0.00240839
2.03843e-05
0.00232639
-0.00153937
3.2664e-06
0.00144126
-0.0010311
-5.65839e-05
0.000800264
-0.000821103
-0.000279556
5.47291e-05
-0.00091901
-0.00056431
0.000338484
-0.000996054
0.00129183
-0.00166395
6.19235e-05
-0.00144392
0.00127825
-7.23868e-06
-0.000672462
4.40664e-05
0.00066667
-0.000658905
4.33637e-06
5.65252e-06
2.30823e-06
2.90075e-06
6.17581e-06
1.0699e-05
3.21581e-05
5.18798e-05
8.73988e-05
-0.000323964
1.91692e-05
-0.000133864
0.00118864
-0.00121484
9.63872e-05
9.31668e-05
0.000486627
0.000504407
0.00421982
0.00541552
-0.0002269
-0.00358638
0.00437737
0.000327594
-0.00553904
0.00656402
0.000461297
-0.00832815
0.00931874
0.000638785
-0.0120988
0.0124872
0.000885432
-0.0166043
0.000391819
0.000707279
-0.00269496
-0.00269179
-0.00799819
-0.00408765
-0.00233825
-0.00143109
-0.000947916
-0.000676743
-0.000470725
-0.000148388
0.000642677
0.000666714
0.000663473
0.00100878
0.000616581
-0.000149065
-0.000463479
-0.000690234
-0.000983965
-0.00146639
-0.00234338
-0.00405816
-0.00771516
-0.0178264
-0.0186661
-0.0321302
-0.0259745
-0.00866121
-0.0086265
0.0161542
0.0017195
-0.00201573
-0.0016093
0.00757862
0.000259286
-0.00616336
-0.00588844
0.00603667
-9.24851e-06
-0.00675743
-0.00645725
0.00532431
4.58559e-06
-0.00839208
-0.0079997
0.0026675
-0.0116077
0.00801841
0.00778584
0.00813201
0.00711793
-0.0099172
0.000763776
0.00353913
-0.0115458
0.00265052
-0.0107777
0.0123815
-0.0269875
-0.00114555
-0.0259807
0.0197973
0.0211423
0.0203826
0.0199875
0.0204519
0.0198875
-0.0281328
-0.0013883
-0.025373
0.0161764
0.0173565
0.0162467
0.0171393
-0.00114753
-0.0270709
-0.0268902
0.0124157
0.0204299
0.0188848
0.0179469
0.0223977
0.0222457
0.0173059
0.00496782
0.0103364
0.00436325
-0.00241963
0.00398419
0.000897862
-0.00292611
0.00218214
0.000303397
-0.00225252
0.00153823
0.000200145
-0.00164147
0.00103485
0.000121866
-0.0011081
0.000710138
0.000100022
-0.000743227
0.000430544
3.53571e-05
-0.000491576
0.000251401
-1.95242e-05
-0.000386855
8.33942e-05
-0.000190862
-0.000492787
-0.000222906
-0.0006642
-0.000803435
-0.000800548
-0.000538262
-0.000386719
-0.000602494
-2.43247e-05
0.00045019
-0.000334515
3.40815e-05
0.000370723
-0.000368473
1.59339e-05
0.000385547
-0.000396246
-1.40617e-05
-2.86663e-05
-0.000715731
-2.75319e-06
-0.00126418
2.27139e-06
-0.00146649
1.10181e-05
0.0018568
-0.00188166
-2.08289e-06
-0.0023239
6.56002e-05
0.00295292
-0.00267778
7.74609e-05
0.00337228
6.70359e-05
-0.00423075
0.000112145
0.00525832
8.57426e-05
-0.0064838
0.000155783
0.00789072
6.767e-05
-0.00953928
0.000199692
0.0113433
6.98122e-05
-0.0134245
0.000263728
0.0156262
-0.00010967
-0.017872
0.000448641
0.0203937
-0.000180139
-0.00066658
-0.0254729
-0.0184537
0.000779038
0.0206837
-0.000316663
-0.0191848
-0.0133195
0.000643185
0.0159743
-0.00019317
-0.0138745
-0.00954539
0.000407838
0.0114636
-0.000144423
-0.00962354
-0.0065899
0.000272336
0.0078414
-8.4718e-05
-0.00637119
-0.00436925
0.000174165
0.00512817
-5.8468e-05
-0.0040453
-0.0027819
8.93799e-05
0.00326683
-2.2838e-05
-0.00244945
-0.00171708
4.39643e-05
0.00211765
2.23738e-05
-0.00141201
-0.00100831
0.000103206
0.00158679
0.000176568
-0.00010779
0.000338879
-0.000565153
-0.000921443
5.61786e-05
-0.000283664
5.13363e-05
0.000819547
-6.64601e-05
1.29862e-05
-0.000679157
4.92353e-06
0.00126709
-0.00123527
-3.17596e-06
-0.00145345
6.35692e-05
-0.00168421
4.56486e-05
0.00210509
8.63212e-05
2.09546e-05
1.28332e-05
1.81039e-05
0.00152507
1.52467e-05
-1.01065e-05
-0.000300226
-5.84156e-07
0.00032989
1.27757e-06
1.49627e-06
1.77304e-06
-5.09175e-05
-5.92207e-05
-4.26531e-05
-0.000450731
1.13449e-06
-0.000105945
-6.10248e-05
-5.89009e-05
-6.67937e-05
0.00202951
0.00167621
-6.00595e-05
0.000193863
6.68687e-05
4.99699e-05
0.000994867
0.000136879
-0.00150716
0.00169567
0.000136656
-0.00228845
0.00277722
0.000219516
1.59259e-05
-0.00011952
-0.00013762
-0.0001762
-0.000204097
-0.000248299
-0.000214692
-0.00018176
-0.00012269
-0.000135992
-0.000120624
-6.40269e-05
-7.39185e-05
-0.00147627
0.001657
0.0026573
-0.00328426
0.00428629
-0.00518006
-0.000101498
-0.00325436
1.51632e-05
0.00273244
-8.63304e-05
-0.00203412
-3.19965e-05
0.00179305
-5.93033e-05
1.83773e-05
-0.00154414
-8.88233e-05
0.00192834
-0.00212193
6.96935e-06
-0.00442543
-2.80814e-05
0.00546803
-0.0048193
1.08737e-05
-0.0060681
9.50953e-06
0.00746532
-0.00736507
3.28551e-06
-0.00893441
8.21054e-06
0.010753
-0.0110585
-3.15583e-05
-0.0125962
8.57396e-05
0.0147654
-0.0172533
-1.76898e-05
0.0196528
-0.0221092
-0.000261592
-0.000639631
-0.000109151
-2.20865e-05
2.30911e-05
2.9982e-05
2.6161e-05
2.16812e-05
1.72875e-05
-4.50129e-06
6.95783e-06
-0.000322648
0.000365523
-0.000359545
-0.000326813
3.1412e-06
3.42779e-06
-1.04877e-05
1.87168e-05
0.000308925
2.22483e-06
-3.40483e-06
-2.80284e-05
3.46356e-05
-3.25614e-05
-0.00044013
9.15723e-07
-0.000125612
0.000880509
0.000143647
-3.23305e-05
-2.10846e-05
1.0961e-05
-2.12605e-06
0.000239028
0.000243357
-7.29597e-06
0.000203196
0.000324553
-5.70308e-06
-7.13811e-06
-7.02256e-06
-3.62946e-05
6.51127e-06
-0.000363394
0.00115893
5.18721e-05
-0.00175906
-1.80821e-05
0.00214413
-0.0018935
-4.76605e-06
-0.0024333
2.81002e-06
-0.00301153
5.59791e-07
-0.00381083
1.50277e-05
0.00477546
-0.00489177
-9.50903e-06
-0.00583431
9.26493e-05
0.00717259
-0.00876209
9.8589e-05
0.0105312
3.36969e-07
1.20527e-05
1.38263e-05
1.31196e-05
1.03982e-05
1.24811e-05
2.05531e-06
5.14986e-07
-8.99634e-06
-1.02992e-05
-2.03306e-05
-3.46316e-05
-7.75739e-06
-8.64903e-06
3.61343e-06
3.60194e-06
4.97269e-06
7.35645e-06
9.35596e-06
1.4127e-05
1.6043e-05
1.74258e-05
2.68734e-05
3.42818e-05
0.000145382
0.000201371
-0.000563879
0.000233771
-0.000927399
0.0037862
-0.023459
-0.00638958
0.000179302
-0.00215084
0.0110261
-0.0109765
-0.0334178
-0.0129644
-3.15856e-05
0.00331191
0.000268471
-0.0261512
-0.0114674
-0.00773159
0.0153632
0.0016961
-0.00174383
-0.00293038
0.00822326
0.00025967
-0.00574937
-0.00708042
0.00706944
1.12942e-05
-0.0063086
-0.00742704
0.00658272
5.96846e-05
-0.00809719
-0.00842842
0.00160358
-0.000459934
7.96221e-05
8.43401e-05
0.0196573
-0.0178081
0.000281452
0.0159715
-0.000481763
0.000291565
-0.0201859
0.000458156
-0.0124817
0.0145633
0.000207327
-0.0160158
-0.0280756
0.0210737
-0.00165287
0.00273411
0.0092442
-0.000174441
0.0218773
0.0160195
0.0179858
-0.0215577
0.000748567
-0.0182141
-0.000258298
-0.0201487
0.000923392
-0.0193074
-0.000266306
-0.0194105
0.000965322
-0.020733
0.0167278
0.0163946
-0.00109924
-0.0327606
-0.0263164
0.0122589
-0.008691
0.0120237
0.00691617
0.0081525
-0.0106553
0.00295438
0.0022819
-0.0118793
0.00446325
0.00810801
-0.0100495
0.0169016
-0.00903822
0.00146509
-0.00890153
0.00139701
-0.00960123
-0.00751033
0.0013069
-0.000623718
-0.000102532
-5.39689e-05
1.3221e-05
4.32077e-05
3.95832e-05
3.00141e-05
2.28403e-05
1.75364e-05
-4.61465e-06
7.31477e-06
-0.000204581
0.000250486
2.45042e-06
4.89858e-05
3.48936e-05
2.83653e-05
-0.000333525
-1.79705e-05
0.00038793
-0.000308836
-0.000162901
0.000388414
-0.000386486
-0.000540431
-0.000604304
0.000451062
0.000450062
-2.49973e-05
-3.62585e-05
-0.000125898
1.62408e-05
0.000463952
-7.58008e-05
-0.000102189
-7.7522e-05
0.000363146
0.000364141
-0.000103472
-7.42444e-05
0.00044876
-0.000218004
-0.000486902
-0.000219501
0.00045664
7.85599e-07
-3.58827e-06
-4.15295e-05
1.49958e-05
5.30072e-05
0.000821161
-6.78217e-05
3.58675e-05
-3.34402e-06
-8.22744e-06
-1.39152e-05
-2.08713e-05
-3.40597e-05
-6.32293e-05
-0.000120946
1.80491e-05
-5.43403e-05
0.00010555
-0.000752259
-0.000216389
0.000784363
-0.00140936
-0.000509652
-0.000529872
-0.015776
0.0151585
-0.0004484
-0.000345756
0.000975293
-0.000658632
-0.00035651
0.00274775
0.00505104
0.002684
0.0152458
-0.00714029
0.00168827
0.0110165
0.0125075
-0.00370317
0.00122872
-0.000150538
0.000786508
-0.000187034
6.06723e-05
-0.00125421
-8.92594e-05
5.92209e-05
2.21838e-05
3.3609e-06
-3.44286e-06
8.88491e-06
-2.72355e-06
9.40312e-06
1.197e-05
1.21363e-05
8.91579e-05
0.000174717
0.000264723
0.000365258
0.000480597
0.000680012
0.000400897
0.000120645
0.000227687
0.000131647
5.94667e-05
2.62371e-05
1.98307e-05
1.08548e-05
2.35465e-05
2.12459e-05
-0.00230613
0.00208431
-0.00264207
0.00333326
-0.00417725
7.94501e-05
-0.00370246
0.00293016
6.41007e-05
1.41022e-05
1.0741e-05
5.85515e-07
0.00183334
1.43076e-05
-1.06995e-05
0.000363
-3.91251e-06
1.24949e-05
3.78703e-05
-6.74893e-05
0.000423589
0.000332114
-0.000137473
5.58438e-05
-7.69168e-07
-3.55694e-07
0.000207776
-7.02139e-06
-2.7011e-07
0.000143956
-0.000445801
0.000126272
2.18271e-06
5.10321e-05
3.6981e-05
4.03859e-06
-3.58738e-05
1.71667e-05
3.52176e-05
-0.000137732
-0.000126507
0.00042522
-0.000163862
-0.000307847
-6.83489e-05
0.000390748
-1.74381e-05
3.79141e-05
2.39326e-05
-9.16095e-06
2.73577e-06
1.33854e-05
2.40683e-05
5.88168e-05
1.60568e-05
4.42712e-05
5.67736e-05
7.59022e-05
1.48756e-05
-8.0373e-07
1.96561e-05
-1.49832e-06
0.0046519
-0.00579866
0.00520436
-0.00642044
0.00783909
-0.00950064
0.000162203
-0.00875585
0.00714788
0.000110184
1.04556e-05
9.38363e-05
0.000109339
0.000137907
0.000137289
2.76837e-05
-2.20167e-06
2.50225e-05
2.51246e-05
3.92595e-05
3.15409e-05
4.58823e-05
0.00010895
0.000330851
0.000201975
0.00113186
0.000128034
5.65933e-05
2.34568e-05
5.65721e-06
-5.92314e-06
-2.06049e-06
-2.67936e-06
7.32248e-06
4.44176e-06
3.15408e-06
1.36207e-05
1.55874e-05
1.21125e-05
-5.18911e-06
-1.04323e-05
7.04774e-07
-6.60742e-07
-3.42267e-06
3.19439e-06
6.35613e-06
1.1238e-05
1.83787e-05
2.36959e-05
3.57548e-05
2.8887e-05
3.58375e-05
6.8332e-05
5.84279e-05
4.03904e-05
9.93988e-05
0.000251201
8.74871e-05
9.4553e-05
0.00348647
-0.000612602
0.000379343
7.71962e-05
0.000269525
0.00743245
-0.000297119
-0.00108044
0.00597598
0.00204156
-0.0260807
-0.00950258
-0.0166761
0.0164065
-0.0116539
-0.0125048
0.0148134
-0.0178153
-0.000967001
-0.00133479
-0.016778
0.0149969
-0.000140092
-0.000749022
-3.80442e-05
0.000289327
0.000394504
0.00632774
0.00218983
-0.0115569
-0.0106319
0.018004
0.0016387
-0.00425185
-0.00130138
0.00707927
0.000184987
-0.00823891
-0.00535587
0.0053839
-1.83437e-05
-0.00857151
-0.00588963
0.00472164
-4.45628e-05
0.00751314
0.00728804
0.00042347
0.0101218
-0.0098933
7.73627e-05
-0.00794887
-5.91979e-05
-0.000144196
-2.15805e-05
7.09808e-06
1.63816e-05
1.39096e-05
9.52655e-06
5.90411e-06
3.05338e-06
-1.82573e-06
-7.35235e-06
0.000142394
-0.00225954
0.00277396
0.000222411
-0.00355733
0.00439783
0.00670297
-0.00798198
0.0100783
-0.0119151
-0.000159097
-0.00779145
0.000138718
0.00657344
-0.000133601
-0.00510911
6.03193e-05
0.00429031
-0.000396296
-0.000275432
-0.00396005
-0.000168903
0.00464083
-0.00518639
3.65802e-05
-0.0103297
-2.05715e-05
0.0124171
-0.0108488
2.51115e-05
-0.0130275
2.87674e-05
-0.0151727
-2.6428e-05
-0.0174827
-5.47768e-05
0.0199088
-0.0206762
-1.32744e-05
0.0226222
-5.39955e-05
-0.0222545
0.0221777
-6.8324e-05
-0.0201428
0.0203658
-0.0224643
-1.31301e-05
2.21942e-05
0.00011727
8.51896e-05
3.85355e-05
1.36554e-05
2.44479e-06
-3.53924e-06
-6.47832e-05
-8.55576e-05
-0.000175754
-0.000220981
-0.000209514
-0.000252491
-0.00549169
0.00661394
0.00046795
-0.00822146
0.00943219
0.0145166
-0.0172253
0.0199517
-0.0237314
0.000400961
-0.0178711
0.00172749
0.0136964
-0.000110381
-0.0117278
0.000444153
0.00972776
-0.000750004
-0.000359491
-0.00845536
-8.93836e-05
0.0101275
-0.0109955
0.000124313
-0.0202727
8.55605e-05
0.0234928
-0.020106
-6.08146e-05
0.0224455
0.000159016
-0.025549
0.0149799
-1.00109e-05
-0.0152007
0.0132378
-0.0168418
0.000514418
-0.00294581
-0.00146656
-0.00245675
-0.00411052
0.0174978
-0.0275933
0.00588452
-0.00629896
-0.00300329
-0.00171315
-0.00111345
-0.000764101
-0.000518419
-0.000293372
0.000105519
0.00208137
0.000977026
-0.000505539
0.00034323
0.000148461
0.00121673
-0.00107099
0.00105984
-6.46589e-05
-0.000700754
2.95221e-05
0.00136854
-0.00131075
-6.29193e-06
-0.00151975
1.24313e-06
-0.00185995
-3.68332e-07
-0.00237191
1.43243e-05
0.00300046
-0.00306738
-5.73729e-06
-0.00373167
7.46968e-05
0.00468217
2.01357e-05
9.03999e-06
0.00393499
1.34185e-05
0.0024585
-2.50732e-06
-5.31049e-06
-1.70269e-05
-5.99032e-05
5.43968e-06
0.000699855
4.50478e-05
4.43738e-05
0.000247005
0.000435517
-0.000783118
-5.30328e-05
-0.00133842
9.99196e-06
-0.00278044
-2.49369e-05
0.00343985
-0.00303535
3.46034e-06
-0.00389169
5.12093e-06
-0.004797
2.80189e-06
-0.00595348
1.42466e-05
0.00732648
-0.00751601
-1.67662e-05
0.00918839
-5.04423e-06
4.7202e-06
0.00613395
-1.30268e-07
1.99626e-05
8.50101e-06
-5.10826e-06
0.00240058
-1.88379e-05
0.00150156
9.27752e-05
-3.75249e-05
0.00130293
-1.27885e-05
7.70235e-05
-0.00015023
0.0017148
-9.58078e-05
-0.000166213
-0.00253913
-0.00013122
-0.00337328
1.66572e-05
-0.00688948
-2.93877e-05
0.00840859
-0.00739014
1.91828e-05
-0.00909551
1.73691e-05
-0.0108205
-3.67439e-06
-0.0128144
-1.20577e-05
0.0150504
-0.0155413
-5.07742e-05
0.0178891
-3.53466e-05
-4.65574e-06
1.29897e-05
1.79556e-05
3.26927e-05
2.67541e-05
2.14026e-05
1.55042e-05
1.2204e-05
1.25598e-05
1.6737e-05
1.06507e-05
0.000124312
0.000199709
0.000286142
9.62945e-06
3.4518e-05
2.47143e-05
2.07622e-05
1.51958e-05
-1.76316e-06
6.60594e-06
-0.000127733
-0.00185857
5.4686e-05
-0.00181811
0.00252742
0.000123147
-0.00301603
-0.00308871
0.00257473
0.00240775
0.000119847
-0.00288022
-0.00329406
0.002729
-0.00196732
5.1234e-05
-0.00175795
0.0015815
0.00166367
0.00164031
0.00160078
5.49909e-05
-0.00193315
-0.00179775
-0.000127779
0.00244899
0.00012393
-0.00323348
-0.00295187
-0.000204172
0.00381501
0.000236957
-0.00514681
-0.00467266
-0.00479521
-0.00491292
0.000240304
0.00394451
0.00402553
-0.000203078
0.00374402
0.000233948
-0.00455673
-0.00524492
0.00427965
-0.000209811
-0.00271585
-0.00406485
8.19998e-05
0.00220836
-0.000134021
-0.00167856
-0.00246502
3.6446e-05
0.00148668
0.00176379
-0.00106643
9.82002e-05
-0.00103499
-0.00013325
-0.00105178
9.767e-05
-0.00103332
-0.000133117
-0.00105336
0.000100971
-0.00105095
0.00174152
0.00150169
-0.000139457
-5.85735e-05
0.000152237
-0.000652022
-0.000701068
-0.000679631
-0.000756311
-0.000719576
-0.000725618
-0.000727084
-0.000665046
-0.00101388
-0.000749535
-0.000683064
-0.000699737
-0.000470694
-0.000191096
-0.000241379
0.000448023
-0.000503643
0.00126225
0.00127693
0.00126775
0.00126995
0.00131733
0.00122076
-0.000484567
0.00039032
-0.000189791
-0.000470659
-0.000242671
0.000463951
-2.93715e-06
5.95878e-05
6.05229e-05
0.000126992
0.000203439
-9.48018e-06
-0.000299504
0.00611465
0.000376816
-0.00726743
-0.00744942
-0.00688827
-0.00795639
0.000363083
0.00568623
0.00651828
-0.000306508
-0.0042642
-0.00641939
0.000168193
0.0034392
0.00515469
-4.66213e-05
0.000476263
-0.000761479
9.39948e-05
0.000748767
-0.00115939
0.000138383
0.0011518
-0.00166935
0.000246952
0.00187857
-0.00212647
0.000748631
0.00379241
0.000675255
0.00196864
-0.00052526
0.00106516
-0.000566333
0.000746486
-0.000437165
0.000539931
-0.000312468
0.000358554
4.88628e-05
-0.000496264
0.00327792
-1.99081e-05
0.000280029
-0.00038521
-1.22147e-05
0.000109857
-0.000243831
-0.000316166
0.000103908
2.44575e-05
-0.00142121
9.81746e-05
-0.000989531
-0.000140002
-5.65527e-05
0.000166784
-0.000519492
-0.000801061
-0.000798388
-0.000665833
-0.000219428
-0.000495074
-0.000187258
-0.000347689
-0.001128
0.000177697
0.00158929
0.00121543
0.00132603
-0.000483831
-0.0010582
-0.000649644
0.000155793
0.000505476
0.000489159
0.00073456
0.00100668
0.00134147
0.000265311
-0.00642097
-0.00973258
0.00788593
0.00524884
-0.0004692
-0.000310327
-0.000173298
-0.000150512
0.000705897
0.00091841
0.0011748
-0.000646722
-0.000421332
0.00951013
0.000511108
-0.00993828
-0.0115444
-0.00920923
-0.0142256
0.000369385
0.00773835
0.0116032
-6.22965e-05
0.000126715
6.18166e-05
4.00126e-05
7.41577e-05
0.000131792
-0.0127135
0.0113764
-0.013455
3.15837e-05
0.000284749
0.000193879
0.000133104
3.63958e-05
-3.9901e-06
0.0105373
4.012e-05
3.84818e-06
0.014832
0.000236987
-3.15216e-06
0.000377869
0.000462453
-7.5373e-05
1.20189e-05
3.73937e-05
1.66688e-05
2.55325e-05
-2.27673e-05
2.83499e-05
2.53513e-05
4.44823e-05
7.9459e-06
3.63089e-05
3.21777e-05
1.3704e-05
1.5858e-06
2.71324e-06
2.08671e-06
1.41014e-05
0.000329834
0.000556571
0.000377604
0.000302836
0.000305868
0.000339434
0.000170093
0.000169527
4.77555e-05
0.000112449
0.00114784
0.000228067
0.000456935
0.000451408
0.000585287
0.000591082
0.000677406
0.000614913
0.000621283
0.000850683
0.000740319
-0.011827
0.0127187
0.000960291
-0.0158298
0.000677367
0.000464387
-0.00263899
-0.0035717
-0.0218659
-0.0231019
-0.0384066
0.00971048
0.0032372
0.0181696
-0.00657928
0.0104464
-0.00115689
-0.0117762
0.0106732
-0.000246562
0.00740572
-0.000265016
0.010037
-0.0110342
-0.000899405
-0.000278994
-0.000336894
0.000139078
-0.00118362
0.00773791
-0.000339037
0.000427964
0.000246942
0.000127328
0.00014527
7.22433e-05
6.49197e-05
-0.00015225
-0.000159236
-7.39441e-05
0.000110473
0.000756818
0.000109701
-5.25725e-05
-9.30172e-05
0.00630081
-0.00767722
7.55294e-05
-0.0148347
1.4719e-05
0.0175697
-0.0151892
1.40563e-05
-0.0177329
2.95923e-05
0.0175432
-4.94419e-06
8.98277e-06
1.83291e-05
3.78394e-05
8.82503e-05
0.000664253
0.00013347
4.59734e-05
2.16794e-05
8.63618e-06
8.54275e-06
7.737e-06
5.24882e-06
3.07087e-06
0.00239934
5.20693e-06
0.0030467
2.39221e-06
0.00187202
0.00148502
4.73447e-06
0.00126064
0.000697969
1.83336e-05
2.87186e-06
-1.12993e-06
8.79428e-06
5.10994e-06
0.00384874
8.78276e-05
-0.000232149
0.0030075
-0.000151105
0.000120592
-0.00032032
0.00419728
-0.000190085
-0.000353787
-0.00591607
-0.000171793
0.0069749
-0.000420653
-0.000221293
0.000244584
0.000172783
1.79549e-05
0.00601387
1.40864e-05
0.00601135
3.16406e-05
4.58657e-05
0.00903613
2.35888e-05
0.0109752
4.02778e-05
0.000112397
0.0129896
-0.000606124
0.00905827
-0.000397064
-0.00047035
-0.0118838
0.000146604
0.0123171
-0.00115532
0.000265228
-0.000270161
-0.00218602
-0.00569568
-3.08758e-05
-0.000884917
-0.000375996
0.000235226
0.000234233
0.0177556
3.04515e-05
-2.35018e-05
-6.57442e-05
-7.08552e-05
-0.000339208
-1.48845e-05
4.72175e-05
3.84531e-05
0.0153898
0.012905
-1.10504e-05
-1.29433e-06
-4.03096e-05
-0.000100419
-0.000132991
-0.000583629
-0.000198289
-0.000184711
-8.67119e-05
-2.9775e-05
0.0131503
-3.35022e-05
4.08365e-06
1.40182e-05
0.000265873
0.000173411
8.89625e-05
-5.80374e-05
-1.45199e-05
0.000369709
0.000487988
0.000667353
-7.32778e-05
0.000281608
0.000257791
-0.000486253
0.00234291
0.00527805
-0.00361003
0.023841
0.00187953
0.00101197
0.00017601
0.00100806
0.00128406
0.00114385
0.000908231
0.000698717
0.000499383
0.000510038
0.000159911
-4.15151e-05
-4.22519e-05
-0.00101368
-0.000503905
-0.00105821
-0.000522204
0.00016209
0.000481183
-0.000175804
-0.000134158
0.00224214
0.00268623
0.000124569
6.21603e-06
1.16534e-05
1.31845e-05
1.21592e-05
1.3838e-05
1.68625e-05
-4.08255e-05
0.000449906
0.00130043
8.58814e-05
5.73382e-05
7.7068e-06
-2.79512e-06
1.36338e-05
1.36329e-05
1.56664e-05
1.71751e-05
-1.21199e-05
0.000198413
0.000282282
0.00029144
0.000385052
-6.22597e-05
-0.000561875
-0.0108051
0.000546205
-0.0105152
0.011914
0.000805668
-0.0145438
-0.0150411
0.0122483
0.0114674
0.000711957
-0.0137029
-0.0160822
0.013126
-0.000570382
0.0109596
0.0162942
2.2772e-05
7.9932e-05
-0.000860526
0.0017367
0.0021553
0.00251825
0.00538064
0.00636008
0.0131371
0.0307965
0.00370979
0.0161111
0.023885
-0.00201534
-0.00118115
0.00133395
0.00139776
-0.000782988
-0.000586184
0.00829466
0.00889473
0.00869342
0.00843314
0.000537841
-0.0112843
-0.0102649
-0.000571363
0.0116578
0.000807487
-0.0156128
-0.0143372
-0.000779487
0.0150854
0.0160832
0.0142862
-0.000755903
-0.000152518
-0.000213495
-1.85442e-05
2.236e-05
9.76837e-05
2.28107e-05
2.24806e-05
-3.23636e-05
-1.27653e-05
-0.000215746
0.00217243
-0.000244925
-0.000149121
-0.000337463
-0.000298611
-0.000186085
-0.000316099
-0.00014344
0.00582939
-0.000174885
0.000107171
2.55601e-05
8.87226e-06
0.000246785
0.000214698
-0.00259836
0.0131775
-0.00677258
-0.0240314
-0.0282437
0.0024132
-0.0134238
0.00568925
0.00184038
-0.0083213
-0.00923319
-0.000921229
-0.00135779
0.00887616
0.00822225
-0.000826403
-0.00807362
-0.000171734
0.00800759
-2.54323e-05
8.42693e-05
-2.27235e-06
8.02e-05
0.000280386
0.000291769
0.000186498
4.60833e-05
3.39118e-05
-5.90848e-05
-5.42553e-05
3.01927e-06
-7.4824e-05
-2.90584e-05
-1.09612e-05
0.000372984
0.000469227
0.000472084
-0.000194436
0.000566969
0.000534128
-0.000334074
0.0210989
-0.00122792
0.00132593
-0.0234084
0.000522005
0.000291694
0.0029829
0.000358504
0.000614537
0.00195744
-0.000156847
-2.84144e-05
-0.00014375
0.000572763
0.0051674
-0.000344384
-0.000228641
-0.000138725
0.000103531
-0.0142332
0.0163208
-0.000605475
4.5313e-06
-0.000759414
-0.0017344
-0.00193654
-0.000359122
-0.000176253
0.00622714
-0.000196594
-0.000209103
-0.000398469
-7.6724e-05
-0.000247109
0.00553507
-0.000369832