/*--------------------------------*- C++ -*----------------------------------*\
| =========                 |                                                 |
| \\      /  F ield         | OpenFOAM: The Open Source CFD Toolbox           |
|  \\    /   O peration     | Version:  2306                                  |
|   \\  /    A nd           | Website:  www.openfoam.com                      |
|    \\/     M anipulation  |                                                 |
\*---------------------------------------------------------------------------*/
FoamFile
{
    version     2.0;
    format      ascii;
    arch        "LSB;label=32;scalar=64";
    class       volScalarField;
    location    "1.9";
    object      gradTy;
}
// * * * * * * * * * * * * * * * * * * * * * * * * * * * * * * * * * * * * * //

dimensions      [0 -1 0 1 0 0 0];

internalField   nonuniform List<scalar> 
5322
(
0.0460773
0.00559855
0.00152006
0.000672454
0.00130098
0.00143131
0.00122735
0.000951976
0.000706989
0.00048286
0.000159129
-0.000605632
-0.000598529
-0.000550493
-0.000500672
0.00114937
0.0015114
-1.83546e-05
0.00120198
-0.00180217
0.00203829
-0.00273887
0.00322257
-0.00433291
0.00515178
-0.0064926
0.00758269
-0.00969331
0.0111454
-0.0134227
0.0152554
-0.018117
0.0207912
-0.0205675
0.021187
-0.0121523
0.0244641
0.0297428
0.0150557
0.0169524
0.0219811
0.0184731
0.019829
0.0205469
0.0195987
0.0202165
0.0199124
0.0212856
0.0205796
0.0189187
0.0238944
0.0106064
0.0124796
-0.0382936
-0.00183759
-0.0219754
0.0121577
-0.028605
-0.00133451
-0.0248515
0.0123369
-0.0281068
-0.00118568
-0.0246706
0.0123932
-0.0291613
-0.00163953
-0.0239443
0.0125792
-0.0325771
0.000962504
0.0250956
0.0139197
0.0195257
0.0145131
0.018452
0.0153466
0.018401
0.0156615
0.0219947
0.00159236
0.00867043
0.0126532
0.0200484
-0.00127043
-0.00714276
0.00268139
0.00507533
0.0109724
0.00161182
0.00295303
0.000523491
7.13522e-05
6.75393e-05
0.0242938
-0.0140891
0.000461283
0.0142428
0.000442663
-0.000774719
0.00264548
0.000466911
0.0152411
-0.0236231
0.0212027
0.000518587
-0.000481717
-5.82963e-05
1.46902e-05
4.64716e-05
4.23476e-05
3.17311e-05
2.37968e-05
1.78601e-05
-3.88948e-06
6.9025e-06
0.000425805
-0.000159329
-6.91791e-05
-0.000310368
0.000389283
-0.000190298
-0.000386033
-0.000540159
-0.000604692
-2.31792e-05
0.000452989
-0.000336128
3.31557e-05
0.000370983
-0.000368015
1.60551e-05
0.000384982
-0.000395178
-1.32175e-05
0.000358019
-0.000431221
-3.56702e-05
-0.000111443
0.000663938
0.000542339
-0.000379684
0.000247649
0.000191762
-0.000415872
5.63898e-05
-0.000397067
0.000308963
0.00032415
-0.000359224
-4.9176e-06
-0.000326557
0.000330368
0.000365756
-0.000321613
-5.89938e-07
-0.000300613
0.000391177
-1.68931e-05
-8.20899e-06
0.00129367
-0.0010035
0.00129949
-0.00167577
7.66678e-05
-0.000832116
1.58021e-05
5.96276e-05
-0.000112709
0.000340163
-0.000677808
0.00067792
-0.00123674
4.74474e-06
0.00126788
-0.00146484
0.00152539
-0.00188265
1.04e-05
0.00186058
-0.00237012
0.00246007
-0.00306871
1.53458e-05
0.0030113
-0.00381324
0.00394636
-0.0048967
2.07065e-05
0.00480431
-0.00597757
0.00618051
-0.00753563
3.12265e-05
0.00739711
-0.00903087
0.00933556
-0.0111159
4.98782e-05
0.010906
-0.0131015
0.0135392
-0.0156491
7.34879e-05
0.0153082
-0.0181475
0.0187272
-0.0206808
0.000104716
0.0201054
-0.0236926
0.0238899
-0.0141322
-9.92598e-05
-0.00158029
0.000786168
-0.000485141
-2.29866e-05
0.000131662
0.00021094
1.66005e-05
0.0243213
-0.0140739
6.80947e-05
0.0169123
-0.00260586
-0.00112945
0.000977912
-0.000958253
0.0141539
-0.0239556
0.00014989
0.00010586
0.000298963
0.000160346
6.48446e-05
1.83524e-05
-6.49532e-07
-8.78286e-06
-1.15948e-05
7.2911e-06
-6.2014e-06
-0.000339691
-0.000364266
-0.000365269
-0.000339547
8.44898e-05
0.000107937
6.12726e-05
-0.000443139
0.000208353
-0.000447153
0.00010742
8.467e-05
6.22052e-05
-0.000441789
0.000141976
0.000417752
0.000260667
-0.000443202
0.000209075
0.000453784
0.000635578
0.000689272
-0.0012518
-0.00125014
-0.00134189
0.00114964
-0.00169136
0.00195708
-0.00260446
0.00319678
-0.00409542
0.00504291
-0.00630926
0.00760985
-0.00942965
0.0109511
-0.0136196
0.0150245
-0.0187576
0.019443
-0.00351021
0.0120252
-0.00206257
0.000408571
0.0168364
-0.0172622
0.000933337
0.0136203
-0.0128726
0.000653518
0.0101444
-0.00897174
0.000468325
0.00711952
-0.00599582
0.00033098
0.00473096
-0.00388314
0.000221674
0.00298569
-0.0024648
0.000137249
0.00179847
-0.00159925
0.000134092
0.00100922
-9.80412e-05
0.00100924
-0.00159906
0.000134213
0.00115459
-0.00133592
0.000508029
0.000802434
0.000581015
0.000557936
-0.00117424
0.000914604
-0.00152227
0.00172214
-0.00233758
0.00288998
-0.00368959
0.00459334
-0.00571433
0.00693307
-0.00860798
0.00996753
-0.0124661
0.0136262
-0.0166581
0.0171049
-0.00195419
0.00899567
-0.00713244
0.00077248
0.0236532
-0.0243131
0.00119349
0.0197194
-0.0175503
0.000762106
0.0144757
-0.0119444
0.000500824
0.0100204
-0.00792767
0.000341736
0.00666103
-0.00512145
0.000224772
0.00426235
-0.00323261
0.000142106
0.00264201
-0.00208343
0.000142249
0.00154905
-0.00148949
0.000502531
0.00112255
0.000981728
-0.000490547
0.0010785
-0.000246279
0.000150389
0.00122521
-0.00107358
0.00116192
-0.00133614
0.00214561
-0.00189829
-1.81605e-05
-0.00175347
0.00150083
-0.00131301
3.15225e-05
0.00136711
5.56137e-05
8.15438e-06
-0.000359744
3.31978e-05
-2.83871e-05
1.90878e-05
-9.96685e-06
-4.61234e-06
0.00126221
-0.00126423
0.00148502
-0.0018614
3.1199e-06
0.0024025
-0.00301563
0.0038684
-0.00480846
1.53459e-05
0.00607243
-0.00739521
0.00919027
-0.01089
3.40885e-05
0.0133467
-0.015275
0.0184449
-0.0201012
-3.46838e-05
3.60296e-05
5.7569e-05
0.000164018
8.26227e-05
8.55434e-05
0.0134897
-0.0152715
6.94576e-05
0.0181505
-0.0210608
0.0188164
-0.0199133
0.000185745
0.0243132
-0.0265504
0.0170648
-0.0129523
-0.0240783
-0.0018616
2.23754e-06
-0.00863996
-0.00232953
0.000351131
0.0125301
0.0153549
0.000992783
-0.0204435
0.0136079
-3.73688e-05
-0.0122618
0.00968442
-0.000172872
-0.0079101
0.00661462
-0.000119463
-0.00503637
0.00429334
-0.000113443
-0.00320696
0.00280737
-9.74704e-05
-0.00191356
0.00182374
-0.00013093
-0.00114045
0.000280963
0.000466328
-0.000736465
-4.48608e-05
0.00132384
-0.00152721
0.00172645
-0.00213675
0.00273401
-0.00339864
0.00551061
-0.00484012
-2.33423e-05
-0.00444035
0.0038686
-0.00304609
-2.42609e-05
0.00345519
1.59218e-05
-6.13638e-05
-3.42686e-05
-0.000109173
-0.000256675
2.41192e-05
9.07414e-05
1.89444e-05
8.03975e-05
9.59055e-05
4.93499e-05
-6.65048e-05
0.00106283
0.000338373
6.16743e-05
0.000267677
-9.13601e-06
-0.000113128
-7.90052e-05
9.16389e-05
0.000135155
-0.000133112
-0.000216494
-0.0025437
-0.000121325
0.00303857
-0.00402962
0.00426852
-0.00522601
0.00649442
-0.00771713
0.0126752
-0.0109273
5.09904e-06
-0.0104642
0.00923252
-0.00743225
-1.69488e-05
0.0085135
5.9899e-05
-8.33567e-05
-7.97529e-05
4.57105e-05
-0.000767023
-0.000369229
-0.00026132
-0.000492374
-0.000185269
-0.000133939
0.0019546
-7.24729e-05
-5.24986e-05
0.000238057
-0.000450818
-0.000146261
0.000612335
0.00114351
0.00207045
0.000125955
-1.71319e-05
0.00011901
4.20887e-05
-0.00168294
-7.41916e-05
0.00196933
0.00179702
-0.00246091
0.000137698
-0.00259938
-0.000134716
0.00321299
0.00298621
-0.00387337
0.000222979
-0.00410447
-0.000207321
0.00505267
0.00474209
-0.00598016
0.000333886
-0.00635092
-0.000205818
0.00758784
0.0071626
-0.00895902
0.000475217
-0.0095434
8.34866e-05
0.0107996
0.0102863
-0.0129189
0.000668246
-0.0138254
0.00124038
0.014421
0.0140393
-0.0175868
0.000957234
-0.0187801
0.00476074
0.0178352
0.017833
-0.00261714
0.000420437
-0.00317579
0.0572109
-0.0279468
-0.0288593
0.0427237
0.0112681
0.00400694
-0.0335956
-0.00784393
-0.00475812
0.0145098
-0.0152256
-0.000291311
0.000664616
-0.00281363
-0.00317856
-0.000646805
0.000853842
0.000465985
-0.0001927
-0.000535182
-0.000177203
0.000235819
6.53977e-05
3.33657e-05
1.45656e-05
-1.97792e-06
-1.49643e-05
-5.67892e-05
-2.762e-05
0.000699146
-0.000699315
6.22171e-06
4.99065e-06
-0.000712156
0.000701424
-1.71764e-06
2.70145e-06
-2.77994e-06
-5.26175e-05
-3.34451e-05
0.000127155
8.38154e-06
0.000146142
-5.13761e-05
-6.33986e-05
-2.01841e-06
0.000240958
-0.000283958
0.000287622
-0.000237426
-0.00024137
-0.000201913
9.61167e-06
0.000286043
0.000252838
-0.000250106
-6.95603e-06
-0.000285759
8.55485e-07
1.86555e-06
1.04847e-05
4.93694e-06
1.48389e-06
-0.000125365
-6.42032e-05
-0.000119249
-0.000168977
-0.000188258
-9.87697e-05
-3.99319e-05
0.000859357
-0.00199279
-0.000853511
-0.000197917
0.00736732
-0.00853297
0.00953758
-0.011108
0.0133568
-0.00058938
-0.0124675
-0.000486083
0.0111714
-0.000296037
-0.00111105
0.000183143
0.000129484
0.000252056
0.000295867
-0.000264758
-0.00320943
0.0110343
-0.00527798
-0.0184996
-0.0028585
-0.00346583
-0.0434169
-0.0122856
0.00159632
-0.0183266
0.013244
0.000662016
0.000593441
0.0160028
0.0133931
0.00171841
-0.00154521
0.017598
0.015833
0.00182144
-0.00184305
0.0160138
0.0180157
0.00170077
-0.00413002
0.0133565
0.0182525
-0.00651649
0.0105348
-0.00914798
0.00978418
-0.0383622
-0.0207236
0.00332761
-0.00948666
0.0181947
-0.0011453
-0.029495
0.0169679
-0.000319142
-0.0200258
-0.0199309
-0.0286269
0.00970282
-0.0149943
-0.0100607
0.0155832
-0.0274085
-0.00408108
0.0173494
-0.0177106
-0.00139989
0.0135738
-0.011613
-0.000737149
0.00963956
-0.00771593
-0.000539482
0.00651171
-0.0050626
-0.000390644
0.00424833
-0.00322859
-0.000237771
0.0027059
-0.00202037
-5.96326e-05
0.00177659
-0.00120351
0.000248575
0.00106579
-0.000511138
0.000975629
0.0011201
-0.00150345
0.00154524
-0.00210455
0.000144153
0.000911589
-0.0011754
0.000501514
0.000554698
0.000585356
0.000801844
0.000687717
0.000507512
0.000996736
0.000608701
-0.000161213
-0.000477716
-0.00069285
-0.000681766
-0.000994301
-0.00152938
-0.00117913
-0.000560623
-0.000315528
0.00474977
-0.00594132
-0.000228199
-0.000168594
-0.000319526
3.04872e-05
-0.00693533
0.00608194
2.46012e-05
0.00489543
-0.00610047
2.59045e-05
0.00755093
-0.00920814
5.42078e-05
0.0111601
-0.013337
0.000101237
0.0157089
-0.018407
0.000137446
0.0206012
0.000162361
0.000370407
1.33503e-05
-2.5239e-05
-7.29436e-05
1.19662e-05
3.00024e-05
2.28844e-05
1.36203e-05
6.30431e-06
2.27054e-06
1.17288e-06
6.29099e-06
1.90192e-05
-0.000681691
1.21477e-05
3.79106e-05
-4.31029e-06
-8.79112e-06
-1.43298e-05
-2.12503e-05
-3.56863e-05
-6.89024e-05
-0.000134221
-0.000180314
0.00074435
-0.000221132
-0.000579568
-0.000791745
0.0153848
-0.0164681
0.01941
2.02103e-05
-0.00271741
0.00226399
0.00703211
2.55827e-05
-0.00632192
0.00591619
0.00603722
6.96501e-06
-0.00673284
0.00628527
0.00542782
-8.80683e-06
-0.0084956
0.00805774
0.00760455
-0.000165464
0.0106607
-0.0112144
0.0109372
-0.0117438
-0.0010988
-0.00589544
0.0083643
-0.000746832
-0.00805704
-0.000189042
-5.83079e-05
0.0278493
-8.9264e-05
-0.0280276
0.0176289
-0.000630728
-0.018236
0.0182821
-0.000406647
-0.0191578
0.0282195
-0.000274679
-0.028237
0.0247202
-0.024636
0.0244706
-0.02508
0.000114211
-0.0279284
0.0276181
-2.9828e-05
-0.0182805
-0.000701524
0.0184307
-0.0157361
9.329e-05
0.0279739
0.0101306
0.0271376
0.0100684
-0.0117534
0.0171555
0.00224488
-0.0125234
0.0123609
0.000877278
-0.00970546
0.0087715
0.000590564
-0.00690507
0.00613686
0.00041198
-0.00469166
0.00403729
0.000294817
-0.00307122
0.00261838
0.000147065
-0.00196463
0.00156202
-2.65525e-05
-0.00133097
0.000790512
-0.000443442
-0.00122835
-0.00034111
-0.00106367
0.000704706
6.67038e-05
3.56327e-05
0.000432747
0.000113649
-0.00066903
-0.00054345
-0.000141492
-0.000423472
-0.000265199
-0.000203605
-0.000469698
-0.000223592
-0.00023851
-0.000466114
-0.000685264
-0.000729625
-0.000504417
0.00133263
9.5899e-05
-0.000922866
-0.000131305
0.00150118
0.00176731
6.53981e-05
-0.00164163
-0.000136528
0.00225785
0.00329888
-5.22816e-06
-0.00429492
9.56192e-05
0.00519127
-4.43299e-05
-0.00671259
0.00015224
0.00794384
-7.19574e-05
-0.0100925
0.00015122
0.0116672
-9.96714e-05
-0.014536
0.000209804
0.0163726
-0.000183578
-0.020084
6.75703e-05
0.021697
-0.000491645
-0.0266484
-0.000708901
0.000586843
-0.0161437
0.0263426
0.000150671
0.0148904
0.000372103
-0.0124824
0.0204893
-4.26806e-05
0.0108839
0.000312245
-0.00914212
0.014991
-3.54754e-05
0.00771703
0.000242717
-0.00634792
0.0104604
-1.93245e-05
0.00523499
0.000194797
-0.00424094
0.00698229
-1.16153e-05
0.00342056
0.000132353
-0.00271976
0.00448485
-6.21206e-06
0.0021481
8.78697e-05
-0.0017276
0.0028139
-1.06786e-05
0.00135357
5.20516e-05
-0.00116377
0.00177456
-5.24728e-05
0.00108057
-0.00014736
0.000248595
-0.00112324
-0.00097439
0.000506615
-0.00107565
-0.000255291
-0.000104275
-0.00207482
-0.00114646
-0.00100548
-0.000666907
-0.000506045
0.00119263
0.00137624
0.000120314
-0.000874232
-0.000140701
0.00213014
4.57274e-05
-0.00266094
9.23636e-05
-0.000219116
-0.000107704
-3.91628e-05
-0.00120828
-6.08284e-07
0.000443287
-5.50578e-05
-8.09406e-05
-0.000116212
0.000446755
-0.000143682
6.01823e-05
5.27094e-05
1.81385e-06
4.15772e-06
3.76261e-06
4.28759e-06
3.56009e-06
4.82164e-06
-5.53771e-06
-1.13095e-06
0.00240312
-0.00278187
1.54778e-05
-3.56326e-06
-1.89448e-05
2.04247e-06
-0.00151708
1.22679e-06
0.00187748
-0.00243164
4.38974e-06
0.00306144
-0.00389729
1.1398e-05
9.24501e-06
1.84912e-07
1.02915e-05
1.15056e-05
3.45829e-05
4.75324e-05
3.04472e-05
1.74973e-05
9.42537e-06
7.43912e-06
1.61632e-05
1.1439e-05
2.76946e-07
0.00185042
-0.00232466
0.00209954
-0.00266232
0.0033596
-0.00421009
6.82368e-05
-0.00156998
7.64932e-05
0.00146864
7.50301e-05
-0.0010513
4.50582e-05
0.000815519
-5.73275e-05
-1.4932e-05
0.000288333
-2.44855e-05
-0.00051473
0.00330955
7.73734e-05
-0.00265199
-0.000210563
0.00335404
0.00439866
0.000226748
-0.00432066
-0.000301251
0.00538368
0.00651828
0.000364011
-0.00656407
-0.000423242
0.00782474
0.00957811
0.000499297
-0.00960022
-0.000571091
0.0107262
-0.0133443
-0.000729189
0.0135634
-0.0179547
-0.000131992
-0.000624327
-0.000125903
-2.48357e-05
2.33475e-05
3.06811e-05
2.64106e-05
2.19713e-05
1.80272e-05
-4.40556e-06
7.03739e-06
0.000340843
0.000363229
0.000366875
-9.31091e-05
0.000452706
-2.06734e-06
-4.99521e-06
0.000466292
-8.01988e-05
0.000446565
-0.000139878
1.84939e-05
-3.60304e-05
3.73898e-05
-9.1116e-06
1.59181e-05
-2.48114e-06
-0.00145446
6.12911e-05
3.79728e-05
1.30772e-05
2.61453e-06
8.36578e-07
-0.000250399
0.000251082
9.71038e-06
-0.000205769
0.000333024
-7.94924e-05
2.35751e-05
5.78711e-05
1.50062e-05
-4.19287e-05
0.000454604
-0.00142973
9.57229e-05
-0.000969206
-0.000140102
0.00145829
0.00180591
4.5678e-05
-0.00166747
-0.000129204
0.00272963
0.000118485
-0.00272016
-0.000207647
0.00355513
0.00430385
0.000227644
-0.00437302
-0.000310049
0.00536292
-0.006628
-0.000431035
0.00780214
0.000349846
0.000271231
0.000194391
0.000125898
6.56004e-05
2.39843e-05
-8.37784e-06
2.80046e-06
1.35412e-05
4.27367e-06
-6.18091e-06
-3.14667e-05
-2.03454e-05
-8.26521e-06
-9.88256e-06
-5.98092e-05
-5.35259e-05
-0.000120089
-0.000118399
-0.000176555
-0.000203421
-0.000974515
-0.00146429
-0.00237777
-0.00257248
-0.00467494
-0.00400837
-0.00230227
-0.0086433
-0.0259818
0.00161082
-0.0413678
-0.030846
-0.0233095
-0.0155576
-0.013718
0.00519166
-0.0121252
-0.000718341
0.00307856
0.000327074
-0.000188509
0.0148393
-0.0172493
0.0197616
0.000179323
-0.00243874
0.00370255
0.00816496
0.000296569
-0.0056919
0.00764339
0.00763019
0.000310744
-0.0060848
0.00787564
0.00716868
0.000228221
-0.00815116
0.008967
-0.000407099
0.000334418
0.000617762
0.00384272
-0.0162859
-0.0234415
0.000999021
0.0197354
0.000428457
0.000170956
0.0124725
0.00014313
-0.0204151
0.0237032
1.40224e-05
-0.0256966
0.0151705
-0.0153094
0.0133811
-0.00244909
-0.0169683
0.000560257
-0.0204789
0.0280165
-0.0245275
0.0226581
-4.63379e-05
-0.0226914
3.41519e-05
0.0224762
-6.79297e-05
-0.0225788
1.30026e-05
0.0226791
-8.0748e-05
-0.0227646
0.0249579
-0.028602
0.00197059
-0.0222909
0.0307372
0.0016047
0.00089945
-0.00982372
0.0104795
-0.0108493
3.38207e-05
-0.00808837
0.00744296
0.00053218
-0.00925038
0.00668451
-0.0078443
0.00064552
0.0152228
-0.00847125
0.00503235
0.00107863
-0.00945163
0.00746764
-0.000163874
-0.000142333
-8.14569e-06
0.00024601
0.000122135
4.29914e-05
7.84878e-06
-5.00228e-06
-1.01919e-05
-1.18612e-05
7.09684e-06
-5.69686e-06
0.000205048
0.000240832
6.88084e-07
-5.47748e-05
-3.38827e-05
0.000420745
0.000142208
-0.000379051
0.000191583
0.000247365
-0.000401457
7.13809e-06
-0.000433335
-3.51456e-05
-0.000113213
-0.000366305
0.00054438
0.000671492
3.42475e-05
0.000127661
-3.06026e-05
1.78027e-05
0.000311078
-0.000334805
-3.27897e-06
-0.000361599
0.0003627
0.000336784
-0.000308772
-7.42617e-07
-0.000398531
1.7111e-07
0.000399224
5.37057e-07
1.53509e-06
-1.11411e-05
8.00834e-06
2.9985e-05
9.46486e-05
0.00206868
0.00114209
0.000601035
-0.000163183
-0.000479701
-0.000711283
-0.00100737
-0.00148724
-0.00235338
-0.00403666
-0.00411998
-0.00794143
-0.0086664
-0.0185966
-0.030422
-0.0274988
-0.0276447
0.0114921
-0.0164032
-0.00803522
-0.0086844
-0.0253647
-0.0310278
-0.0279813
-0.0279973
-0.0279075
-0.027824
-0.0317856
0.0116451
-0.00168966
-0.00668567
0.0348885
-0.00986157
-0.0230984
-0.0215366
-0.00624511
-0.00761882
-0.0174082
-0.0180249
-0.00254124
-0.00450166
0.000292014
0.000803951
0.000749677
0.000561666
0.000388812
0.000299101
0.000165795
0.000160452
3.84601e-05
0.000106207
-0.000306329
-0.000535002
-0.000782399
-0.00113165
-0.00172678
-0.00299665
0.000720563
0.000515014
0.000431652
0.000616164
0.000585477
0.000448291
0.000442705
0.000293012
0.000369513
0.000220388
0.00171676
0.00262337
-0.0032478
0.00423083
-0.00511684
0.000225144
0.00287555
-0.00234642
0.000143759
-6.70241e-06
-6.03391e-05
-5.66815e-05
-0.00152768
3.93449e-06
-0.000444476
0.000262325
-0.000114185
-2.03205e-05
-3.16477e-05
5.57395e-05
-0.000416999
0.000323165
-1.98907e-06
-7.09461e-07
-6.83121e-07
5.49393e-07
0.000205376
-6.64058e-06
1.56714e-06
1.3909e-06
1.27175e-06
-0.000126799
1.27389e-06
5.30894e-05
3.31277e-05
4.3778e-05
-3.34849e-05
3.03138e-05
-1.9702e-07
3.5216e-06
-0.0001265
0.000417498
0.000402819
-0.000244831
-5.37806e-05
-0.000193909
0.000381833
3.52256e-05
1.16236e-05
1.801e-06
7.65837e-07
-8.46807e-06
-6.70957e-06
-6.23012e-06
-3.3614e-05
-2.29468e-05
-6.09633e-05
2.68331e-05
-0.000115622
-0.000115137
-0.000168942
-0.000195546
-0.0036955
0.00456212
0.0066178
-0.00787969
0.00995328
-0.0117579
0.000477659
0.00686863
-0.00570239
0.000334553
1.7174e-05
-8.04752e-05
7.26555e-05
-8.55861e-05
0.000151711
-0.000198998
-0.000221452
-0.000203855
-0.000219837
-0.000128124
1.52027e-05
0.000201059
0.000263606
0.000118432
0.00369444
0.000130658
0.000138572
6.33596e-05
2.63202e-05
7.05464e-06
-4.86581e-06
1.10928e-07
-1.8297e-06
-9.27476e-06
1.59353e-05
5.18186e-06
-2.43881e-06
3.79145e-05
1.62784e-05
1.66796e-05
9.10192e-06
8.47697e-07
1.42495e-05
1.28214e-05
3.72736e-06
7.51268e-06
1.35291e-05
2.27162e-05
1.37318e-05
7.77249e-05
3.66438e-05
5.65888e-05
0.000160337
7.24179e-05
0.000151287
0.000328885
0.000257597
0.000832267
-0.00242872
-0.00290447
-0.000481777
0.000380069
0.000524047
0.000308255
-0.00699599
-0.000160069
-8.85913e-05
-9.98001e-05
-0.000726974
-0.000248245
0.0161682
-0.000222883
-0.0200545
-0.000157424
-0.000861395
-0.0186505
-0.000857363
-0.00104815
-0.0124251
-0.00627721
-0.0102836
-0.0246924
0.00257202
0.00619157
0.000379002
-0.000338496
-0.000291466
-0.00052843
9.14902e-05
-0.0145022
0.0191982
0.00012222
-0.00430039
0.00196015
0.00651522
4.57739e-05
-0.00815661
0.00520303
0.00525666
-1.36037e-05
-0.00840912
0.00555295
0.00466499
-6.64818e-05
-0.00774013
0.00187795
-0.0114472
0.00557434
0.00862985
-0.0107247
0.00315586
0.00133375
-0.000636533
-0.000107586
-1.69809e-05
3.13975e-05
3.49777e-05
2.80168e-05
2.20956e-05
1.59189e-05
6.88444e-06
1.48519e-05
6.36179e-05
0.0029587
-0.00373416
7.87943e-05
0.00469791
-0.0058497
0.00524628
-0.00647226
0.00790117
-0.00958001
0.000117609
-0.00378597
0.000135654
0.00362242
8.77201e-05
-0.00245838
0.000109331
0.00237398
2.00005e-05
9.07621e-05
0.000776823
-7.37535e-05
-0.00119788
0.00796057
0.000257221
-0.00626681
-0.000423131
0.00754231
0.0097818
0.000505371
-0.00943731
-0.000564519
0.0130868
0.000792458
-0.0132316
-0.000797497
0.0135486
0.0172519
0.000786468
-0.0214385
-0.00035495
-0.0178298
-0.0211982
0.000918085
0.0167604
0.0139177
-0.0175127
-0.000291885
-0.00062766
0.000561623
0.00046208
0.000378266
0.000286022
0.000199291
0.00012345
5.58646e-05
9.32226e-05
2.19097e-05
-4.2658e-07
3.07954e-05
-5.59457e-07
0.00721772
-0.00883436
0.00016032
0.010638
-0.0128313
0.0114616
-0.0135711
0.0160768
-0.0179555
-0.000513258
-0.00763416
1.24521e-05
0.00772959
6.42398e-05
-0.00566519
0.000126506
0.0053305
-4.89111e-06
0.000243366
0.00193955
1.15069e-05
-0.00220464
0.0164306
0.000454668
-0.0122096
-0.000793353
0.0142122
0.017154
0.00078152
-0.0220422
-0.000258449
-0.0157442
-0.0282907
0.000216898
0.0212253
-0.00175787
0.00934046
-0.000206419
0.00635216
0.00534247
0.00272823
0.00172991
0.0118255
-0.007085
-0.000376275
0.00120448
0.000669668
0.000481882
0.000369959
0.000270095
0.00017899
9.13271e-05
5.28961e-05
0.000826162
-0.000566265
-0.000924222
-0.00021978
0.000178273
-0.00049903
0.0016034
-0.000668606
-0.000800302
-0.000793318
-0.000484535
0.00120575
0.00135118
9.38607e-05
-0.000982425
-0.000133377
0.0017536
5.11585e-05
-0.00163683
-0.000129795
0.00228568
0.00274209
0.000126652
-0.00275002
-0.000213353
0.00352668
-0.000358618
-0.000278987
-0.00336815
-0.000153712
-0.00206111
0.000502794
0.000506107
0.000161628
-0.00064038
-0.00105234
-0.000686217
-0.000522356
-0.00112695
-0.000350349
-0.000189199
0.000106867
2.19342e-05
0.00214357
3.28077e-05
-0.00164046
-0.000134641
0.00215641
0.00280159
0.000114284
-0.00273091
-0.000205255
0.00428287
0.000231511
-0.00432807
-0.000305505
0.00538944
0.00655892
0.000346037
-0.00801672
-0.000583466
-0.000423324
-0.00530945
0.000918237
0.000923164
0.000707089
-0.000172938
-0.00202372
-5.45723e-05
-0.00109553
0.000167771
-0.000319218
-0.000396859
0.000104211
0.000488183
-0.000247867
-0.00248264
0.000351875
4.49811e-05
0.00049227
-5.26076e-05
0.00520438
0.000161928
-0.00416234
-0.00030775
0.00511685
0.00670403
0.000354887
-0.00653297
-0.000415166
0.0094931
0.000531601
-0.00951503
-0.000577709
0.0107218
0.0132883
0.000727636
-0.0160684
0.00041796
-7.11372e-05
-2.5521e-05
2.16336e-05
1.73463e-05
1.12138e-05
6.54838e-06
3.52442e-06
-2.45499e-06
-3.21121e-07
1.4676e-05
3.45763e-06
-2.08339e-06
5.01216e-06
1.82938e-05
4.4527e-05
7.16668e-05
3.49282e-05
1.24286e-05
3.51521e-06
4.00809e-06
-1.37797e-06
1.51136e-06
0.00243005
2.54778e-06
-0.00242132
0.00305954
4.61564e-06
-0.00388649
0.0039007
-0.00304728
0.00308844
6.73797e-06
-0.00393953
0.00388566
-0.00305907
0.00242279
-2.48644e-06
-0.00246299
0.00189673
-0.00188362
0.00189036
-0.00189113
7.05575e-06
-0.00241571
0.00247229
8.21031e-06
-0.00307921
1.86361e-06
-0.00387561
0.00395623
1.01895e-05
-0.00491253
-9.47487e-07
-0.00605665
0.00616794
-0.00606809
0.0060899
7.63752e-06
0.00487364
-0.0048539
4.91801e-06
0.00492694
1.54916e-05
-0.00614231
0.00607178
-0.00485772
-2.60354e-05
-0.00445772
0.0027289
1.19417e-05
0.00347163
-2.40059e-05
-0.00279944
0.0017321
1.33396e-05
0.00216274
-0.00190804
0.00151498
-6.76581e-06
-0.00153925
1.91375e-07
0.00150683
1.43644e-06
-0.00150224
5.40615e-06
0.00154313
9.20177e-06
-0.00151043
0.00191529
-0.00216119
2.19171e-05
2.40202e-05
1.6305e-05
5.75108e-05
3.5582e-05
-0.000705543
0.000731137
-0.000719497
0.000720441
2.84719e-07
-1.4852e-06
-1.63856e-06
-0.000730605
0.000706552
-3.50697e-05
-1.9898e-05
0.000361584
-0.000405979
1.06919e-06
-2.93629e-06
0.00128185
-0.0012972
0.00130013
-0.00127927
0.00132781
-0.00137745
-2.96552e-05
-7.04369e-06
-0.000360603
2.05089e-05
0.000406208
-1.69834e-05
1.36505e-05
1.18297e-05
3.09194e-06
5.59191e-06
9.10434e-06
1.16477e-05
1.14159e-05
-0.00745215
9.20405e-06
-0.00910236
0.00913186
-0.00920574
0.00912447
2.52961e-05
0.00757084
-0.00744962
-2.50836e-05
-0.00694112
0.00424655
2.34243e-05
0.00551937
-0.00340877
-0.000123569
-0.00256193
0.00304836
-0.000264511
-0.0039975
0.00470134
-0.000340953
-0.00597476
0.0070616
-0.000346873
-0.00854089
0.0102452
-0.00045395
-0.0120003
-0.00115174
-0.000374986
-0.000604344
-0.000203967
-0.000419954
-0.000178346
-0.000320204
-0.000142725
-0.000232675
-9.05178e-05
-0.00015852
0.00195396
-0.00214463
-8.29474e-05
-0.00155863
0.00131791
2.33246e-05
-9.11774e-06
-0.00015067
-3.85235e-05
-0.000790613
-5.01792e-05
0.00116761
5.32626e-05
-0.0017695
-1.72673e-05
-1.89755e-05
9.68435e-05
4.7114e-05
-6.64651e-05
-0.000704375
0.00106391
0.000343138
0.00122414
0.000437675
0.000248996
4.20507e-05
0.000147261
-0.00108159
0.00137911
-0.00132488
3.05166e-05
3.29817e-06
-6.11946e-05
-1.48534e-05
-1.92979e-06
8.13679e-05
9.39176e-05
0.000129248
0.000185338
4.63635e-05
-0.0104081
0.00637712
-0.00524023
0.00848778
2.12304e-05
6.99796e-06
-4.09175e-06
3.39136e-06
1.35981e-05
2.67395e-05
4.10918e-05
5.18866e-05
-1.29644e-05
-0.0109355
3.42026e-05
-0.0131816
0.013117
-0.014945
0.00917088
8.85956e-05
0.0125358
-0.00775435
-0.000158266
-0.000156719
0.000740023
0.000582152
0.000632857
0.000863377
0.00980474
0.0143429
-0.0169976
0.00174839
0.000130112
-4.04313e-05
0.000459803
-0.00014064
-3.33248e-05
-0.00852723
0.000144113
0.000807469
-0.0122308
0.000683205
0.000102536
4.74246e-05
0.000101379
0.00021489
0.000314419
0.000149902
5.92353e-05
2.89691e-05
2.45373e-05
2.30643e-05
3.28405e-05
4.39821e-05
2.89101e-05
2.32894e-05
2.8654e-05
1.93534e-05
1.64372e-05
-8.97759e-07
1.20301e-05
1.27148e-05
0.000109761
3.33585e-05
2.31808e-05
1.57785e-05
1.60205e-05
1.08655e-05
6.62036e-06
1.4271e-05
1.71724e-05
1.10934e-05
-6.77081e-05
2.04092e-05
3.34693e-05
2.50684e-05
4.28855e-05
6.73783e-05
7.35747e-05
0.000125677
6.33699e-05
0.000120478
5.94828e-05
0.0149625
-0.0178636
0.000264171
0.0197973
0.000375256
7.41078e-05
0.000212676
0.00128286
-0.00378614
0.0125584
-0.0104494
0.0220283
0.0031884
0.0136366
-0.0118193
0.0101491
-0.00997059
0.00708228
0.00803457
-0.0108215
0.0024452
-0.0116728
0.00748314
0.00773888
0.0145818
-0.000765607
-0.000295365
-0.00182929
-0.000127708
-0.0074124
-0.000150219
-3.33309e-05
3.66649e-05
5.14164e-05
8.75498e-05
4.81261e-05
4.0029e-05
4.76035e-05
3.94792e-05
-3.39477e-06
4.02543e-05
1.07465e-06
0.000280905
0.000192769
0.000137576
-0.00981443
0.0117089
0.000361339
-0.00899382
-0.000574287
0.0106848
0.0134941
0.000717355
-0.0130532
-0.00077085
-0.0159393
0.000465194
0.000382866
-2.00133e-05
1.22727e-05
-2.44793e-06
0.00023104
4.26147e-05
2.22725e-05
2.95586e-05
2.31875e-05
-7.68377e-06
0.000203368
0.000127296
6.09954e-05
-0.00199117
-0.000149954
0.00228742
-3.85436e-05
0.00151423
-0.00112532
-0.00100438
0.00123109
-0.000742635
-0.000680875
-0.000631925
0.000165442
-0.000276902
-0.00030999
-0.00338862
0.000733411
-0.000315129
-0.00078813
0.000532581
0.00100641
-0.000438471
-0.00647258
0.000737794
0.000135213
0.00119494
-7.1021e-05
-0.00172479
-0.000567679
0.0010524
0.001731
0.00134101
-0.000468429
-0.00539439
-0.000423111
-0.00524523
0.00118251
-0.000646576
-0.00817905
-0.000583736
0.00784983
0.00140573
-0.000866392
-0.0118597
-0.000526783
-0.014346
0.00195222
0.000743188
0.00387935
0.000274678
-0.0203578
0.000677173
0.0021382
0.0024906
0.00366183
0.0130784
0.0307071
0.0161151
0.0237382
-0.0020673
-0.00120024
-0.0164986
0.00134028
0.000783717
0.0025378
0.015863
0.0230505
-0.00200429
-0.00110627
-0.000783645
0.0108549
-0.0114951
0.00131729
0.00115982
0.0010753
0.000320125
0.0019378
0.0145914
0.0232486
-0.00206572
-0.00111761
-0.000787645
-0.0115894
-0.000962994
-0.000722855
-0.000534678
0.000746236
0.000520968
0.000295534
4.83079e-05
0.00022847
0.000990172
0.00121302
0.00130185
-0.00123631
-0.00158889
0.00185977
0.0133092
0.0259958
-0.00452115
0.00522629
0.00231296
0.0020307
0.000251418
-0.000145822
-7.37965e-05
-3.7102e-05
-1.97757e-05
-1.11078e-05
-4.48254e-06
5.98249e-06
2.09136e-06
8.96016e-07
-1.03985e-06
7.26209e-06
4.12529e-06
4.38414e-06
-1.51703e-06
-5.03139e-05
-9.72609e-05
-7.93782e-05
1.27273e-05
3.21372e-05
-0.00347264
0.003073
1.2312e-05
1.08582e-05
1.22643e-05
1.3452e-05
7.22953e-06
1.36055e-05
3.78623e-05
-6.13113e-06
0.000363895
-0.0015636
0.000115029
6.9321e-05
8.23296e-06
1.22191e-05
1.47423e-05
-1.38054e-06
-9.62102e-06
1.92887e-05
1.44805e-05
1.21885e-05
1.01744e-05
1.32129e-05
1.50332e-05
4.5688e-05
4.32128e-05
0.013075
3.14646e-06
-0.0130459
0.0153703
-2.17119e-05
-0.0177752
0.0177711
-0.0153452
0.0156099
2.4959e-05
-0.0179326
0.01793
-0.0153054
2.85197e-05
0.0177348
-0.0110954
-7.14279e-05
-0.000103281
0.000123088
0.000262895
0.000289831
-0.000248028
-0.00144021
-0.00292907
-0.00567289
5.89963e-05
-0.00219432
-0.000868749
-0.000263523
0.000277415
0.00025581
4.4446e-05
5.27407e-05
5.48537e-05
2.9963e-05
0.0111317
-0.0109472
0.0109812
-0.0111031
-1.79432e-05
-0.0130557
0.0132158
2.51076e-07
-0.0155962
-4.80995e-05
-0.0178416
0.0179512
-1.75418e-05
-0.0207491
0.0204344
-0.0234817
-1.38639e-05
-0.000155735
-5.57862e-05
1.85705e-05
3.39379e-05
0.000121473
0.00028956
0.000744586
0.00413955
-0.0023187
0.057704
-0.00152941
-0.00026567
-0.00109025
-0.0113041
0.0025125
0.00656281
0.000514497
-0.000118734
-0.00585041
-0.000143884
0.000140597
0.000306617
2.59541e-05
3.32935e-05
0.000553474
0.000320447
-0.0186332
0.0163223
-0.000768887
-0.000471599
-0.000138923
0.00326442
-0.000859174
0.00267994
0.00437359
0.00774393
0.0149411
0.00331451
-0.00846118
0.00341715
-0.0116418
0.00271741
0.00127547
-0.00809099
0.00056478
-0.000138525
1.27463e-05
-2.79934e-05
1.18717e-05
0.000123974
-8.1984e-05
-0.000196039
-5.97078e-05
-0.00021648
-5.0228e-05
8.10988e-06
-2.33204e-06
1.33594e-05
-9.30952e-06
-2.15337e-06
-4.27901e-05
5.48165e-06
6.79327e-05
0.0001461
0.000359898
0.00592161
0.0253444
0.00134745
-0.00345165
0.0162147
0.000683445
-0.00249804
-0.00151888
-0.00250199
0.0573347
-0.00125409
-0.000285078
0.000485125
0.000114588
0.000265554
-0.00533035
-0.000161206
-0.000156311
-0.00115095
-0.0114044
-0.0104554
-0.00670269
-0.0239304
0.00255064
0.0058397
0.00026217
-0.000333751
-0.00035525
-0.000210809
-0.00647408
-0.000343671
0.00315838
-0.0020664
0.00338965
-0.000227853
-0.00594322
-0.000368701
-0.000165196
-4.44178e-06
0.000463991
0.0021044
0.000512638
0.000567121
0.00202108