/*--------------------------------*- C++ -*----------------------------------*\
| =========                 |                                                 |
| \\      /  F ield         | OpenFOAM: The Open Source CFD Toolbox           |
|  \\    /   O peration     | Version:  2306                                  |
|   \\  /    A nd           | Website:  www.openfoam.com                      |
|    \\/     M anipulation  |                                                 |
\*---------------------------------------------------------------------------*/
FoamFile
{
    version     2.0;
    format      ascii;
    arch        "LSB;label=32;scalar=64";
    class       volScalarField;
    location    "1.9";
    object      gradTy;
}
// * * * * * * * * * * * * * * * * * * * * * * * * * * * * * * * * * * * * * //

dimensions      [0 -1 0 1 0 0 0];

internalField   nonuniform List<scalar> 
5322
(
0.650062
0.0610582
-0.00445008
-0.0273154
-0.0151428
-0.00537596
-0.000187971
0.00482142
0.0141574
0.0258486
0.000233311
-0.19259
-0.214053
-0.192139
-0.166793
0.360971
0.482831
-0.000743753
0.333406
-0.395259
0.375913
-0.381877
0.374596
-0.383368
0.382024
-0.374753
0.374374
-0.382175
0.381093
-0.376417
0.378743
-0.378736
0.391068
-0.335948
0.322262
-0.161086
0.316463
0.39726
0.198422
0.214827
0.293191
0.244872
0.253459
0.27367
0.260916
0.258328
0.265074
0.283188
0.262367
0.250564
0.314334
0.152208
0.170381
-0.561623
-0.0306515
-0.32498
0.170812
-0.426194
-0.0242655
-0.370414
0.173441
-0.419129
-0.021665
-0.367661
0.174139
-0.433729
-0.0279013
-0.355566
0.175757
-0.477138
0.0168067
0.419306
0.233558
0.326283
0.243728
0.308686
0.25758
0.307327
0.260947
0.361011
0.0328838
0.121371
0.18345
0.305383
-0.025999
-0.127609
0.0362981
0.0713896
0.132196
0.0151583
0.0346
0.00639318
0.00100878
0.00118776
0.444454
-0.23728
0.00714807
0.23923
0.00649373
-0.00623661
0.0326285
0.00639258
0.2533
-0.433323
0.387767
0.00522397
-0.00741167
-0.00138378
-0.000230466
0.000412732
0.000470382
0.000578465
0.00132265
0.00265592
-0.00450769
0.00118167
0.137289
-0.0564714
-0.0194014
-0.10596
0.130323
-0.0725345
-0.141341
-0.193339
-0.218477
-0.00880145
0.160137
-0.120839
0.0113234
0.131975
-0.131452
0.00553719
0.137194
-0.140673
-0.00444456
0.128127
-0.1537
-0.012239
-0.035473
0.235308
0.194945
-0.127763
0.0847081
0.065848
-0.134679
0.0145125
-0.131961
0.103509
0.106376
-0.117295
-0.00177387
-0.109455
0.109858
0.11858
-0.106529
-0.000358156
-0.101824
0.129265
-0.00843201
-0.0063768
0.40621
-0.318361
0.352027
-0.373813
0.0126371
-0.241238
-0.00516391
-0.00220574
-0.045149
0.116549
-0.233195
0.232015
-0.389469
0.00088855
0.397801
-0.392991
0.409155
-0.418136
0.00173923
0.411933
-0.422027
0.437725
-0.436382
0.00162395
0.426693
-0.429606
0.443454
-0.44161
0.000994595
0.431323
-0.432403
0.445446
-0.443547
0.000836194
0.433354
-0.434745
0.44774
-0.444317
0.0010869
0.434205
-0.437447
0.450724
-0.443254
0.00143227
0.432545
-0.438707
0.451913
-0.434129
0.00184258
0.421692
-0.434142
0.437765
-0.237249
-0.00106525
-0.017482
0.00727491
-0.00705135
-0.000434244
0.00277904
0.00368458
1.23077e-05
0.445415
-0.236168
0.00199613
0.28153
-0.0382445
-0.011243
0.00927859
-0.0138593
0.238524
-0.438626
0.00254485
0.00195298
0.00548971
0.00355344
0.00189808
0.000853927
5.86895e-05
-0.00117261
-0.00295583
0.00439492
-0.00158155
-0.110518
-0.117715
-0.117768
-0.110774
0.0226277
0.0390017
0.0245891
-0.148824
0.0780632
-0.157824
0.039093
0.0226725
0.0246359
-0.155974
0.0543147
0.149234
0.0963415
-0.148766
0.0782234
0.162002
0.226201
0.23892
-0.391339
-0.390452
-0.420223
0.304851
-0.378194
0.347073
-0.371614
0.359434
-0.370166
0.363853
-0.371882
0.364748
-0.377249
0.363145
-0.386153
0.359351
-0.394677
0.351748
-0.0774552
0.166888
-0.0530992
-0.00920074
0.304528
-0.363455
0.00352539
0.325853
-0.364719
0.00160734
0.336799
-0.35833
0.000736958
0.34183
-0.352653
0.000166831
0.34195
-0.350218
-0.000815361
0.336122
-0.351041
-0.00260589
0.318912
-0.357072
0.00835184
0.267122
-0.0246689
0.266887
-0.357651
0.00836749
0.306445
-0.417803
0.167684
0.277267
0.207231
0.193969
-0.368591
0.241795
-0.344038
0.304256
-0.337103
0.323034
-0.336121
0.329059
-0.338774
0.32961
-0.345842
0.327122
-0.354323
0.321535
-0.350934
0.306512
-0.0505787
0.120763
-0.138306
-0.0026032
0.420161
-0.514174
0.00886408
0.461695
-0.502514
0.00445694
0.470325
-0.48473
0.00172352
0.470606
-0.475683
0.000413666
0.470567
-0.473015
-0.000925664
0.469816
-0.472972
-0.001955
0.462012
-0.477119
0.0106367
0.410846
-0.475053
0.16669
0.38728
0.344152
-0.172797
0.328117
-0.077889
0.0618293
0.393149
-0.340266
0.317454
-0.298883
0.478723
-0.421495
-0.00333907
-0.471728
0.402356
-0.411624
0.0120936
0.433368
0.0193456
0.00839435
-0.122645
0.0120256
-0.00984817
0.00643447
-0.00235153
-0.00084255
0.39621
-0.396986
0.397267
-0.412984
6.68728e-05
0.426061
-0.428795
0.433698
-0.433581
0.000300179
0.43689
-0.435262
0.439975
-0.435414
0.000354027
0.443486
-0.432878
0.444654
-0.421917
-0.000684046
0.00057486
0.000950851
0.00317592
0.00178303
0.00115032
0.447473
-0.432246
0.00228178
0.511157
-0.504933
0.452311
-0.417654
0.00438289
0.507293
-0.482129
0.307261
-0.21378
-0.341449
-0.0231991
-0.0052673
-0.123427
-0.0317114
0.0095666
0.227176
0.296535
0.0236533
-0.483179
0.367118
0.00365115
-0.409844
0.374615
-0.000814711
-0.385681
0.379507
0.000169959
-0.372577
0.378227
-0.0026667
-0.372319
0.392989
-0.00672823
-0.355086
0.401308
-0.0252348
-0.316799
0.102829
0.154605
-0.190665
0.00160561
0.311449
-0.265082
0.311107
-0.304162
0.308835
-0.305586
0.497203
-0.435825
-0.00102957
-0.498429
0.434339
-0.433081
-0.00260297
0.492777
-2.59675e-05
-0.00110788
-0.000725035
-0.0285787
0.00647327
0.0398819
0.0433211
0.0176406
0.00754849
0.024947
0.0176692
-0.0227521
0.368354
0.118087
0.0256759
0.0881503
0.0188185
0.00565647
0.00394384
0.00131209
0.000733697
0.00103487
0.00100989
-0.279649
0.000302752
0.285406
-0.282123
0.308031
-0.306395
0.311039
-0.306947
0.50466
-0.436219
0.000812744
-0.500854
0.441835
-0.436686
-5.65037e-05
0.50012
0.000972001
0.00100533
-0.000116815
-0.00289684
-0.00137788
0.00434425
0.00314622
0.000576227
0.0134857
0.00966992
0.291628
0.00141977
-0.0134289
-0.00116187
-0.0195152
0.00251966
0.193801
0.370071
0.680253
0.0712989
-0.0103478
-0.00481026
-0.0184568
-0.3758
0.0016437
0.349683
0.31826
-0.351222
-0.00258492
-0.370245
0.002743
0.36168
0.335568
-0.350044
-0.000777409
-0.370148
0.00237883
0.364873
0.341932
-0.352338
0.000229107
-0.373308
0.00632722
0.363843
0.342897
-0.358248
0.000862532
-0.380645
0.0177743
0.357986
0.34038
-0.366143
0.00182006
-0.390931
0.0432497
0.344478
0.334906
-0.370004
0.0038549
-0.394629
0.0964385
0.322301
0.322279
-0.062055
-0.00894235
-0.071855
0.848285
-0.37892
-0.386899
0.626708
0.162934
0.0676692
-0.585096
-0.120604
-0.0705815
0.300656
-0.313871
-0.00548027
0.00654439
-0.0393049
-0.0472783
-0.00485825
0.0125373
0.00726035
0.00295092
-0.00385582
0.00173425
0.00277376
0.000816896
8.9224e-05
-0.000751458
-0.00257868
-0.00495255
-0.0171708
-0.00919948
0.239545
-0.23965
0.00287991
0.00154493
-0.243415
0.239837
-0.000567955
0.000996626
-0.00108469
-0.0181678
-0.0115133
0.0434902
0.00471379
0.0500478
-0.0177519
-0.0217668
2.40357e-05
0.0801673
-0.0931875
0.0935614
-0.0798685
-0.0808526
-0.0691179
0.00257882
0.0927802
0.0834956
-0.0833451
-0.00248415
-0.0934824
-3.90143e-06
1.4557e-05
0.00593911
0.0168465
0.0150787
-0.0334242
0.000654204
0.000173032
0.000988227
0.00282682
0.00685723
0.00294966
0.0240058
-0.0188653
-0.00209808
0.0136463
0.300144
-0.273855
0.316161
-0.311507
0.319451
-0.00766904
-0.283219
0.00824225
0.317416
-0.001163
-0.0138784
0.00285177
0.00196663
0.00392283
0.00464699
-0.00334643
-0.0470124
0.161112
-0.0718696
-0.309095
-0.0391671
-0.0372119
-0.608871
-0.16784
0.0214047
-0.2456
0.181586
0.008344
0.0102843
0.219814
0.184393
0.0258472
-0.0206192
0.244515
0.219742
0.0278673
-0.0248466
0.221871
0.250603
0.0259745
-0.0572789
0.184032
0.255906
-0.0886623
0.133398
-0.116308
0.124311
-0.490862
-0.26661
0.0482147
-0.121151
0.264002
-0.0159193
-0.432786
0.228309
-0.00456295
-0.271144
-0.268034
-0.389691
0.164029
-0.214325
-0.13723
0.238461
-0.494778
-0.0554919
0.348046
-0.428543
-0.0109734
0.37299
-0.392532
0.000868371
0.376039
-0.37846
0.00195352
0.374411
-0.374736
0.00213607
0.374224
-0.373889
0.00577382
0.376242
-0.371535
0.0230293
0.388129
-0.33292
0.093676
0.322927
-0.180324
0.342628
0.386981
-0.479879
0.409504
-0.48162
0.0110674
0.241015
-0.368766
0.166505
0.193036
0.20898
0.277242
0.238442
0.167562
0.32283
0.192254
-0.00159287
-0.0279882
-0.0156699
-0.00981593
-0.00591102
-0.0115396
-0.00608177
0.00173842
0.00619197
0.286655
-0.277792
7.44377e-06
0.000487168
0.000110766
2.00366e-05
-0.499055
0.437852
0.000195053
0.43896
-0.441208
0.000460079
0.441728
-0.443222
0.00110806
0.443402
-0.445443
0.00197683
0.442776
-0.445267
0.0025177
0.431593
0.00276867
0.00533065
0.000827537
2.68753e-06
-0.00125897
-6.09867e-05
0.000375039
0.00041122
0.000361111
0.000236047
0.000181449
0.000232804
0.00227205
0.00644759
-0.233333
0.00347465
0.0115538
-0.000603225
0.000415597
0.000626878
0.000404635
-3.44933e-05
-0.000779142
-0.00195326
-0.00285289
0.0104336
-0.00295661
-0.00782599
-0.0102331
0.204355
-0.218097
0.27652
0.000400038
-0.0372161
0.0310933
0.102633
0.000582816
-0.0912039
0.0858515
0.0880259
0.000328398
-0.097565
0.0915865
0.0786047
2.08339e-05
-0.122543
0.116566
0.108942
-0.00207075
0.135719
-0.142908
0.139342
-0.150122
-0.0138631
-0.0829497
0.120516
-0.00990856
-0.114598
-0.00243372
-0.000765061
0.41145
-0.00143121
-0.413863
0.23927
-0.00832316
-0.247441
0.247887
-0.00538937
-0.259823
0.416859
-0.00392396
-0.416677
0.409125
-0.407202
0.404901
-0.414688
0.000944845
-0.412952
0.407461
-0.000830591
-0.247572
-0.0090527
0.249758
-0.212416
0.00196339
0.373749
0.133347
0.393747
0.143939
-0.20352
0.311086
0.0286448
-0.272442
0.294378
0.00589727
-0.28505
0.288226
0.00133062
-0.284833
0.287597
0.000193058
-0.28764
0.285418
-0.00137711
-0.287646
0.285877
-0.00690097
-0.294237
0.271722
-0.0311605
-0.311638
0.203699
-0.148243
-0.395331
-0.119715
-0.370204
0.241969
0.0226588
0.0121
0.154634
0.0361813
-0.238094
-0.196197
-0.0545575
-0.151777
-0.0984071
-0.0768685
-0.168109
-0.0839949
-0.0892468
-0.166985
-0.244524
-0.253381
-0.167349
0.4158
0.02293
-0.244669
-0.00857679
0.335442
0.39467
-0.00445333
-0.291024
0.00193576
0.325267
0.482565
0.00460068
-0.475263
0.000333724
0.479995
0.00114182
-0.477188
0.00129163
0.478431
0.000650434
-0.478577
-0.00101192
0.476964
0.000533028
-0.480145
-0.000178038
0.474862
-0.000980573
-0.482944
-0.00417523
0.466798
-0.00685283
-0.487879
-0.0171253
0.00212384
-0.299912
0.487227
0.00306852
0.313101
-4.3551e-05
-0.304764
0.498426
-0.000150461
0.308899
2.84692e-05
-0.307175
0.501448
-0.000117551
0.308279
-0.000289145
-0.307011
0.502541
0.000111262
0.307223
0.000436529
-0.308198
0.503158
0.000340917
0.307618
9.98688e-05
-0.308708
0.503382
0.000560245
0.305388
0.000514167
-0.312221
0.50044
-0.00136076
0.302255
8.59438e-05
-0.319111
0.477446
-0.01885
0.34259
-0.0612703
0.0787364
-0.388913
-0.342965
0.178944
-0.327015
-0.0959445
-0.0662913
-0.683797
-0.37222
-0.326624
-0.232083
-0.167795
0.372575
0.430953
0.0312844
-0.231803
-0.0109547
0.487714
0.0144916
-0.466552
0.0055098
0.00354795
0.00745091
0.0188354
-0.321471
-0.0155316
0.15663
-0.0230473
-0.0221924
-0.0422134
0.149745
-0.049513
0.0203976
0.0179226
0.000470396
0.00134979
0.00123207
0.000719717
0.000613866
0.000186112
-0.00243396
-0.00177299
0.426969
-0.494965
0.00188057
-0.00257729
-0.00481929
-0.000358588
-0.407152
-0.000420088
0.414924
-0.433515
-0.000433286
0.433031
-0.439217
-3.00791e-05
-0.000135056
-0.0010719
-0.000521234
-4.94137e-05
0.000744049
0.000668294
0.000593213
0.000383407
0.000250751
0.000154126
0.00120569
0.00188452
0.000746403
0.411744
-0.414558
0.376758
-0.378982
0.380071
-0.379409
0.00211901
-0.198531
6.31349e-05
0.187257
0.00675631
-0.209539
-0.000743795
0.159208
-0.0162595
-0.0131161
0.0596158
0.00274226
-0.0643389
0.474651
-0.00645609
-0.298029
0.00115906
0.305172
0.397327
-0.00285342
-0.313572
0.000419955
0.317816
0.384427
4.72458e-05
-0.317441
-1.76106e-05
0.314898
0.385175
0.00249277
-0.320738
-0.000602111
0.308601
-0.323892
-0.00110568
0.290632
-0.331186
0.0131008
-0.00941032
-0.00241026
-0.000919581
-3.16014e-05
0.000257358
0.000536003
0.00144309
0.00301681
-0.0044769
0.00136736
0.110668
0.116569
0.117966
-0.035106
0.159506
-0.016728
-0.0173703
0.163839
-0.030998
0.149388
-0.0482116
0.00588814
-0.0132919
0.0128102
-0.00320199
0.00289703
-0.00234872
-0.391891
0.0103165
0.0115742
0.00246709
0.00014065
-4.31982e-05
-0.0832038
0.0825232
0.00259787
-0.0701875
0.10764
-0.0219244
0.00925306
-0.00376636
-0.00426955
-0.0209081
0.155244
-0.385993
0.0233166
-0.259206
-0.0106117
0.328299
0.40309
-0.00948497
-0.296432
0.0026266
0.388155
-0.00712049
-0.307073
0.00122193
0.321343
0.388993
-0.00176586
-0.315512
0.000457539
0.318795
-0.318551
-0.000123112
0.315536
0.000592122
0.000210901
-0.000126925
-0.000388276
-0.00129144
0.00946472
-0.00624357
-0.000282148
0.00255115
3.68877e-05
-0.00237839
-0.01118
-0.00942355
-0.0025706
-0.00255552
0.00237089
0.00666824
0.00128267
0.00588618
0.00162587
0.00381171
-0.00845399
-0.0119504
-0.0256004
-0.0283702
-0.0607669
-0.0510101
-0.0308297
-0.118262
-0.367969
0.0318326
-0.56854
-0.417754
-0.299507
-0.199079
-0.179692
0.0711791
-0.161514
-0.0158322
0.0378554
0.00145671
-0.00624835
0.193781
-0.22906
0.281697
0.00267002
-0.0330004
0.0523975
0.119672
0.00507088
-0.0814276
0.111875
0.112136
0.00552574
-0.0873265
0.115679
0.104928
0.00418281
-0.116769
0.130629
-0.00623298
0.00371036
0.0187334
0.0801955
-0.344173
-0.49931
0.0054423
0.467351
0.0133789
0.00989955
0.302155
0.00181531
-0.495789
0.501766
-0.000758777
-0.474136
0.278661
-0.319943
0.285115
-0.0313119
-0.297781
0.0161658
-0.331394
0.461951
-0.404674
0.420823
-0.00143505
-0.421846
0.000773559
0.418097
-0.00125173
-0.41977
0.000246768
0.421653
-0.00122366
-0.423413
0.411509
-0.473718
0.027242
-0.328126
0.449059
0.0208645
0.0108035
-0.123506
0.134037
-0.1383
2.63282e-05
-0.115571
0.106161
0.0075479
-0.131981
0.0939368
-0.107207
0.00482786
0.191967
-0.115842
0.0710885
0.0177277
-0.136512
0.107356
-0.00212611
-0.00233265
-7.20402e-05
0.00453506
0.00282413
0.00146375
0.000648961
1.2948e-06
-0.00113803
-0.00288315
0.00442852
-0.0013737
0.0693889
0.0798388
0.000147229
-0.0189174
-0.0116945
0.150422
0.0545056
-0.127667
0.0656506
0.0848259
-0.13364
0.00435998
-0.154738
-0.0120203
-0.0360804
-0.124985
0.19595
0.238328
0.0124435
0.0437243
-0.0106277
0.00597376
0.104534
-0.112336
-0.00136019
-0.117838
0.117505
0.112331
-0.104489
-0.000718955
-0.142567
-6.95303e-05
0.14252
3.16768e-05
7.20068e-05
-0.00259425
0.00850915
0.00375485
0.0637054
0.67963
0.369695
0.19021
-0.00152755
-0.0249514
-0.0139724
-0.00766834
-0.01037
-0.0223706
-0.0470757
-0.0514836
-0.104774
-0.116073
-0.246905
-0.416947
-0.371185
-0.374422
0.159074
-0.249989
-0.0969121
-0.105074
-0.323983
-0.426522
-0.378644
-0.378218
-0.383468
-0.37704
-0.427456
0.161317
-0.0459317
-0.134224
0.511775
-0.160476
-0.306512
-0.299295
-0.0782723
-0.0971187
-0.226588
-0.238124
-0.0627521
-0.0966131
-0.0236552
-0.00775665
-0.00138406
8.19553e-06
0.000225011
-0.000777216
-0.00446887
-0.00523637
-0.0193627
-0.00815298
-0.00296472
-0.0056702
-0.00352525
-0.00484196
-0.0118474
-0.0303979
-0.0127734
-0.0124261
-0.0144181
-0.00687464
-0.00193306
-0.00016444
-0.000353187
-0.001255
-0.00126333
-0.00368885
0.303427
0.458367
-0.474949
0.466555
-0.472977
-0.000655861
0.32199
-0.337607
-0.00157938
-0.00288642
0.00151781
0.00527603
-0.344578
0.015853
-0.157038
0.0968945
-0.0301699
-0.00938222
-0.0111409
0.0143355
-0.134898
0.105966
-0.00079509
-0.000381988
-0.000390752
8.78118e-05
0.0691142
-0.00237596
0.000297517
0.000293412
-0.000200368
-0.0436945
0.000223721
0.0181103
0.0112342
0.0148326
-0.0123278
0.0103606
-0.000167342
0.00107489
-0.0435742
0.134621
0.133652
-0.0845198
-0.014239
-0.0669344
0.128434
0.0112801
0.00248886
5.46997e-05
6.51112e-06
-0.0025537
-0.00232858
-0.00239849
-0.000481708
-0.0104421
-0.000876317
-0.00239439
0.000806013
0.00537111
0.00123102
0.00349165
-0.336175
0.327917
0.468539
-0.473968
0.469338
-0.479137
0.00116967
0.328198
-0.337929
0.000262272
4.49604e-05
8.97376e-05
0.000525833
0.00126638
0.00303181
0.00256409
0.00566951
0.00312755
0.00661226
0.00677219
0.016247
0.0138126
0.0146467
0.00649323
0.0863964
0.00117286
0.00206492
0.000973363
0.000218152
-0.000778906
-0.00278937
-0.00309896
-0.00118488
-0.00111087
-0.000723288
-0.000161704
0.000110792
0.00024463
0.000394969
0.000348154
0.000207191
-0.00104553
0.00140468
0.00132834
3.2467e-05
0.000156064
0.000283913
0.000455384
0.000811723
0.000926151
0.000865002
0.00174891
0.00204974
0.00148769
0.00332966
0.00435941
0.0035932
0.0227064
-0.0287908
-0.041088
-0.00799569
0.00449278
0.00598376
0.0061255
-0.101074
-0.00170365
-0.00097835
-0.00150549
-0.0098419
-0.0038338
0.213985
-0.00279805
-0.285141
-0.0020697
-0.0129269
-0.264051
-0.011474
-0.0156011
-0.165674
-0.0736543
-0.126779
-0.315425
0.0305886
0.0804289
0.00542367
-0.00423784
-0.00356724
-0.00662434
0.0018646
-0.191586
0.273039
0.00193266
-0.0600924
0.0265286
0.0946123
0.00044915
-0.117924
0.0749103
0.0759862
-0.000552342
-0.122018
0.0802244
0.0668894
-0.00130254
-0.111816
0.0253479
-0.151281
0.0668261
0.105937
-0.147049
0.0444372
0.0218927
-0.00891438
-0.00199085
-0.000711183
0.000159872
0.000328446
0.000497874
0.00133701
0.00249272
0.00314476
0.00296728
0.00436847
0.420958
-0.420679
0.00182433
0.422898
-0.422907
0.380244
-0.380417
0.380802
-0.382285
0.00138838
-0.199507
-0.00101299
0.194462
0.00139061
-0.197343
-0.000219806
0.194022
-0.00114756
-0.000792521
0.0627803
0.00122132
-0.0622227
0.470817
-0.0002543
-0.301288
0.000103629
0.304248
0.392947
0.00183278
-0.317279
-0.000610509
0.37462
0.00709784
-0.322956
-0.00233778
0.290103
0.368309
0.00630174
-0.397481
0.00936647
-0.330352
-0.393619
0.00846327
0.357924
0.297702
-0.324705
0.0102655
-0.0087698
0.00306997
0.0015774
0.000879381
0.00016781
-0.000618772
-0.00163184
-0.000786221
-6.30957e-05
0.000665203
0.000412495
0.000589925
0.000251531
0.423776
-0.425007
0.00173593
0.42442
-0.428213
0.383003
-0.383627
0.388523
-0.375702
-0.0145457
-0.198139
-0.00626171
0.200983
-0.00131203
-0.204119
-0.00273826
0.195407
-0.00257459
0.00219239
0.0701601
0.00507974
-0.0557417
0.467592
0.00198762
-0.296011
-0.00233666
0.303077
0.365578
0.00564525
-0.407933
0.010915
-0.289643
-0.51723
-0.00221587
0.447245
-0.030018
0.168606
0.00130502
0.122087
0.0767805
0.0449035
0.0288738
0.228481
-0.144791
-0.0130702
0.00599141
0.000130179
-0.000507158
-0.000180695
-7.16179e-05
-0.000866712
-0.00513061
0.00164151
0.277789
-0.199293
-0.322521
-0.0736768
0.061282
-0.158341
0.507591
-0.234066
-0.286005
-0.276771
-0.161849
0.381325
0.421622
0.0220078
-0.260939
-0.0094417
0.390352
-0.00839415
-0.290842
0.00283153
0.325899
0.390867
-0.0048568
-0.308881
0.00101699
0.321359
0.00171809
0.00196381
-0.38011
0.00587887
-0.366675
0.0338771
0.0346592
0.00106311
-0.20439
-0.342282
-0.238893
-0.168769
-0.355905
-0.125939
-0.0639413
0.0373323
0.0106219
0.481955
-0.00748323
-0.291124
0.00216804
0.309733
0.399335
-0.00746407
-0.308227
0.00119313
0.386396
-0.00269838
-0.314172
0.000399636
0.318332
0.387338
0.000256581
-0.387487
-0.000345872
0.000384554
-0.385134
0.00690226
0.00705768
0.0192715
0.00584176
-0.359734
0.0163195
-0.29093
0.00107347
-0.0533502
-0.0831198
-0.0225403
0.0226762
-0.0091937
-0.444361
-0.00122812
-0.00310413
0.0627445
0.00125168
0.472101
-0.00240961
-0.300443
0.000468994
0.303735
0.395563
-0.00025511
-0.315935
0.000101315
0.381457
0.00271052
-0.319809
-0.000817066
0.307507
0.380483
0.00606982
-0.392385
0.00101384
-0.000605098
6.82108e-05
0.000296947
0.000336867
0.000243225
0.000152419
7.97713e-05
-0.00118819
-0.00309872
-0.000739928
-0.000821122
-0.00103639
-0.00012471
0.000427267
0.000661385
0.000831466
0.00019254
0.000315123
-0.000191842
-0.00023188
-0.00110574
-0.000561394
0.431447
-1.76804e-05
-0.431289
0.433752
3.76486e-05
-0.438141
0.438352
-0.433224
0.437431
-0.000651907
-0.44431
0.437311
-0.434921
0.430975
-0.00193572
-0.439352
0.419415
-0.417952
0.418346
-0.419605
0.00188859
-0.431292
0.440041
0.00100041
-0.437647
0.000746626
-0.437716
0.445178
0.000599041
-0.443155
0.000273902
-0.43929
0.44589
-0.439614
0.439938
0.00011049
0.438438
-0.437824
-0.0001651
0.443015
-4.88106e-05
-0.444991
0.438972
-0.437692
-0.000952947
-0.500707
0.30853
-0.000463595
0.495459
-0.00237343
-0.498063
0.311737
0.00130089
0.48258
-0.423703
0.406508
-0.00148335
-0.4135
-0.000486752
0.403375
4.37225e-05
-0.403272
0.000907298
0.413821
0.00150877
-0.406612
0.424752
-0.4839
0.00343182
0.00512553
0.00467337
0.0172104
0.0117342
-0.242659
0.250272
-0.246593
0.24654
-7.34113e-05
-0.000727767
-0.000692521
-0.25025
0.242496
-0.0118672
-0.00683819
0.129681
-0.144841
0.000510918
-0.000945188
0.402667
-0.407662
0.407897
-0.402869
0.416374
-0.438357
-0.0119288
-0.00456863
-0.12968
0.00681463
0.144774
-0.00597434
0.00266084
0.00256189
7.4991e-05
0.000131894
0.000192218
0.000215008
0.000173233
-0.439311
6.98329e-05
-0.439597
0.439997
-0.444669
0.439578
0.000114403
0.445016
-0.438547
-0.000101226
-0.500537
0.307524
1.93569e-05
0.499177
-0.306711
1.06964e-05
-0.280441
0.28551
0.00284211
-0.281251
0.286046
0.00389578
-0.280276
0.290298
0.00727702
-0.278252
0.296881
0.00625245
-0.281387
-0.00943018
-0.000107996
-0.00136859
0.00238687
0.000322376
0.00124246
-0.000171822
0.000345352
-0.000957037
0.00135823
0.00551809
0.290754
-0.304993
-0.000421568
-0.270119
0.307201
0.0300154
0.0123072
-0.000492471
0.0121198
-0.203247
-0.000288991
0.319022
0.0185985
-0.476085
-0.00305858
-0.00476101
0.0249164
0.017132
-0.0226871
-0.241624
0.36947
0.119959
0.392956
0.146055
0.0831111
0.0199631
0.0606575
-0.342519
0.437741
-0.415662
0.0118852
0.0019786
-0.0188633
-0.00503658
-0.00262193
0.00747264
0.00169823
0.000678469
0.000803996
0.00063651
-0.500291
0.307251
-0.307732
0.501026
2.29863e-05
-0.000777376
-0.00228944
-0.00050671
-0.000663094
-1.82764e-05
0.000148346
0.000817655
0.000611167
-0.438335
2.55231e-05
-0.443111
0.439433
-0.499681
0.306673
0.00131571
0.502987
-0.309646
0.0030086
0.000323234
-0.000994201
-0.0017957
-0.00596984
-0.00445595
0.324228
0.469382
-0.489747
0.0402539
0.00709325
0.00332317
0.0117822
0.00574495
0.0138577
-0.342863
0.0120231
0.0328548
-0.348416
0.00276085
0.00150988
0.00107528
0.00197952
0.00302283
0.00412175
0.00189769
0.00123864
0.000713159
0.0005327
0.000414697
0.00061027
0.000808507
0.000569821
0.000443598
0.00058384
0.000733292
0.00060981
0.00106932
0.0011126
0.000584566
0.00129818
0.0010867
0.00154701
0.00114811
6.33403e-05
-0.000935406
-0.00032722
0.0021709
0.00406876
0.000344365
-0.0231784
0.00276992
0.000561365
0.000940432
0.00115106
0.00126854
0.00105055
0.00225463
0.0014014
0.00264873
0.00146962
0.423389
-0.431796
0.00215801
0.41516
0.00694388
0.00136131
0.00338031
0.0176118
-0.0680056
0.168598
-0.134377
0.283366
0.0414185
0.193635
-0.155837
0.126043
-0.135959
0.0860664
0.0980858
-0.148491
0.0339785
-0.154768
0.0909436
0.0944907
0.185442
-0.00861726
-0.00232944
-0.0236005
-0.00113517
-0.107641
-0.00167013
-0.000754432
0.000656788
0.000886335
0.00167806
0.00099032
0.000654832
0.000852661
0.00064834
0.000167322
0.000590232
0.000350829
0.00240358
0.00114896
0.000492264
-0.472342
0.47031
0.00106598
-0.300445
-0.000722552
0.306111
0.38581
0.00509367
-0.318768
-0.00191054
-0.389461
0.00165481
0.000915118
0.000224052
0.000471898
0.000237141
0.00251094
0.000602066
0.000276612
0.000453517
0.000434411
0.000444032
-0.000605571
-0.00141341
-0.00312355
-0.353657
0.00631275
0.32572
0.0186698
0.337731
-0.298607
-0.325872
0.384486
-0.257729
-0.242683
-0.201065
0.00226213
0.00215163
0.00196645
-0.382255
0.01294
-0.00149383
-0.0620461
-0.000109394
0.00495325
-0.000523201
-0.4683
-5.12682e-05
-9.22487e-05
0.0636068
0.00229686
-0.0616396
0.000444482
0.0028938
0.000869369
0.00163606
0.000409658
-0.391082
0.000455975
-0.38067
0.00125937
-0.000243139
-0.394913
-0.000237475
0.315662
-0.003146
-0.00142042
-0.397773
0.00623768
-0.478912
0.0188536
0.0127988
0.0973036
0.0101591
-0.491756
0.0339076
0.00134885
0.00397756
0.0279748
0.186287
0.441146
0.229077
0.336873
-0.016505
-0.00468543
-0.401622
-0.0114276
-0.0227368
0.0106397
0.227293
0.327762
-0.0172148
-0.00558723
-0.00169825
0.311004
-0.386549
-0.00576519
0.000408553
-0.0175779
-0.0316256
0.000647324
0.209897
0.330097
-0.0181595
-0.00595927
-0.00198403
-0.389519
-0.00195601
-0.000260504
0.000134936
0.00180832
0.00468191
0.00142168
-0.0258559
-0.0073774
-0.000316311
-0.00265384
-0.0063926
-0.00400769
-0.00687142
-0.00127249
0.191669
0.369592
-0.0690851
0.0596057
0.0265908
0.0330623
0.00922361
-0.00211462
-0.000796894
-0.000172802
0.00011112
0.000302889
0.000782006
0.00242303
-0.000127723
-0.000156898
-0.00105996
0.00157478
0.000884027
0.000977335
-0.00188994
-0.0184735
-0.0256794
-0.00776326
0.00272589
0.00275224
-0.497366
0.436206
0.00131665
0.00137125
0.0013719
0.00262955
0.00326791
0.00311046
0.000656137
-0.00846129
0.124217
-0.415743
0.0211475
0.00118585
0.0011022
0.000620215
0.000599191
0.00109016
0.000396475
0.000363957
0.0003334
0.000533511
0.000187357
0.000241627
0.000235416
0.000902312
0.000894297
0.438599
-0.000164116
-0.438288
0.438494
-0.000652814
-0.434114
0.433818
-0.438018
0.444636
-0.000451545
-0.438291
0.4367
-0.436329
0.00166958
0.50525
-0.313994
0.00595232
0.00261789
0.00209529
0.00119371
-3.9084e-05
-0.0104776
-0.0176767
-0.0356671
-0.0841223
0.00454873
-0.036179
-0.0119599
-0.00356052
0.00485638
0.00413524
-0.000498732
3.35393e-05
0.000964246
0.000497907
0.445581
-0.439384
0.44005
-0.445429
-0.000141796
-0.438582
0.443711
-9.26105e-06
-0.444837
-0.000635705
-0.435588
0.438554
-0.000249358
-0.44008
0.433085
-0.499292
-0.00160133
-0.00240385
-0.00102563
0.000308947
0.000586276
0.00221997
0.00514468
0.0213961
0.0859436
-0.026734
0.856354
-0.0204807
-0.00449161
-0.0156491
-0.150138
0.0303991
0.0859852
0.00748182
-0.00123966
-0.0839812
-0.00136848
0.0025734
0.00623593
0.000396045
0.000480709
0.0065616
0.00348467
-0.264775
0.218165
-0.00870992
-0.00610418
-0.000416861
0.0447337
-0.0101791
0.0370121
0.0593154
0.0956306
0.190112
0.0471751
-0.122807
0.0483557
-0.154494
0.0379177
0.0210842
-0.117363
0.00661164
-0.00239402
0.00027255
-0.000589089
5.32454e-06
0.00221192
-0.0010418
-0.00233324
-0.000330916
-0.00273198
-0.000960484
1.10699e-05
-0.000145203
0.00018091
-5.90521e-05
-0.00015291
-0.000877097
4.06639e-05
0.00122891
0.00248361
0.0102279
0.108518
0.455654
0.0261011
-0.0809806
0.292727
-0.00470271
-0.062554
-0.0208016
-0.0299004
0.850008
-0.0162497
-0.00472889
0.00533212
0.00215806
0.00544911
-0.0759879
-0.00163832
-0.00176746
-0.0163675
-0.15117
-0.129183
-0.077925
-0.304828
0.031062
0.075932
0.00388958
-0.0042836
-0.00449718
-0.00239188
-0.0938083
-0.00464229
0.0449908
-0.0269966
0.0478847
-0.00270194
-0.0855759
-0.00505713
-0.00280297
-8.02039e-05
0.00521094
0.0190772
0.00249497
0.00330523
0.0177327
0.0173024
0.000830973
-0.00177517
-0.00044629
0.00105083
0.00299765
-0.00136581
-0.00111102
0.0134918
0.323348
0.0140804
-0.000345086
0.00191084
0.000477137
0.000162304
-0.000135328
-0.00149376
0.00118001
0.439047
-0.50104
0.00127722
0.000532566
0.000437239
0.000450837
-0.502183
0.439811
0.000103274
-0.439403
0.445479
-0.444984
0.000353119
0.439966
0.000322564
0.000126993
8.97247e-06
-8.39596e-05
0.00055602
0.00105494
0.000195441
8.15683e-05
-0.00021699
-0.000959348
0.00151981
0.437923
-0.431974
0.431726
-5.85735e-05
0.000116972
0.000209942
0.000183195
-8.4147e-06
0.439725
-0.502714
-5.52994e-05
-0.000183621
0.000155091
-0.000686466
-0.000721896
-0.502744
0.438434
-0.000530761
-0.000392969
-0.00102864
0.00101494
6.65969e-05
0.000121714
-0.0130852
-0.0208574
-0.0847439
-0.0135235
-0.00140182
5.08037e-05
0.000425672
2.81442e-05
0.000109737
0.00123356
-0.00135961
-0.00156181
-0.000356279
-0.000232574
-0.00190677
-0.00120456
-0.00113181
0.000319264
-0.00174118
0.00132298
-0.00195146
-0.00677802
-0.000586091
-0.00239778
-0.0150162
0.0107291
0.0299015
-0.00061393
0.0011966
-0.428872
0.0032612
0.013245
0.0867573
-0.00176769
-0.00251748
-0.0186943
-0.176644
-0.108486
0.024658
-0.00314349
-0.00247967
-0.00195918
-0.0223785
-0.00285505
0.163092
0.0493447
-0.00835463
0.0347255
0.245849
0.0214415
-0.00359975
-0.00643004
-0.00760026
-0.0114173
-0.283211
-0.252148
0.00186719
0.0255571
0.00946242
0.0410567
-0.077658
0.000479288
0.00452588
-0.0115712
0.000160955
-0.384086
0.00534875
0.00109185
-0.000283535
-0.00167107
7.71203e-05
-0.00136862
-0.4625
0.320447
-0.372782
0.0194045
0.184415
0.315145
-0.000218942
-0.000343928
0.00110928
-0.0796103
-0.301919
-0.0209821
-0.00478669
-0.0011721
-0.00255557
-0.0889219
0.000679639
-0.278788
0.0070989
-0.270724
-0.00209875
0.0369478
0.00136721
-0.106427
0.0501528
-0.0100563
0.334205
0.000391776
-0.285009
0.0213459
0.0890918
0.0167007
1.69584e-05
0.00148408
0.000313991
0.00503763
0.323196
-0.504421
0.0016481
-0.168163
-7.41578e-05
0.0220298
0.0346761
0.0193913
0.00655783
-0.00052161
-0.00757513
-0.0202502
-0.0353196
0.000221697
0.206212
0.245251
0.243997
0.17102
-0.406246
-0.382313
-0.0189004
0.387226
-0.00823543
-0.473384
0.0797661
0.0130426
-0.0551916
0.0609024
0.00381713
-0.0567656
0.0589406
0.00238746
-0.0545562
0.0595748
0.0019112
-0.0541524
0.0585196
0.000107135
-0.0558696
0.056189
-0.00405322
-0.0609833
0.0509425
-0.0150884
-0.0806064
0.0303885
-0.0651325
-0.156253
-0.0749268
-0.234121
-0.287477
-0.281156
-0.239102
-0.254496
-0.264596
-0.25315
-0.273419
-0.259918
-0.258236
-0.269173
-0.25734
-0.274719
-0.272888
-0.254462
-0.338464
-0.158553
-0.152567
0.584988
0.0371734
0.329378
-0.162736
0.426098
0.0269404
0.378152
-0.167292
0.403426
0.0224056
0.389939
-0.167807
0.398894
0.0231713
0.410424
-0.162467
0.387182
0.0247242
0.503203
0.0607262
-0.0433043
-0.322476
-0.00305276
-0.244077
0.157072
-0.212315
0.186297
-0.200375
0.194326
-0.195076
0.19732
-0.194046
0.197472
-0.192463
0.200402
-0.18622
0.210771
-0.157407
0.242754
0.00432439
0.302857
0.213414
-0.0847596
0.238804
-0.222706
-0.0108754
-0.00522407
-0.122089
0.128897
-0.11476