/*--------------------------------*- C++ -*----------------------------------*\
| =========                 |                                                 |
| \\      /  F ield         | OpenFOAM: The Open Source CFD Toolbox           |
|  \\    /   O peration     | Version:  2306                                  |
|   \\  /    A nd           | Website:  www.openfoam.com                      |
|    \\/     M anipulation  |                                                 |
\*---------------------------------------------------------------------------*/
FoamFile
{
    version     2.0;
    format      ascii;
    arch        "LSB;label=32;scalar=64";
    class       volVectorField;
    location    "0.6";
    object      flux;
}
// * * * * * * * * * * * * * * * * * * * * * * * * * * * * * * * * * * * * * //

dimensions      [0 1 -1 1 0 0 0];

internalField   nonuniform List<vector> 
5712
(
(-0.349149 0.573522 0.390542)
(-0.447294 0.330916 1.275)
(-0.810718 0.913012 0.314169)
(-1.20059 0.606641 1.30408)
(-1.23248 1.00121 0.230029)
(-2.11745 0.748734 1.3291)
(-0.929805 1.5308 0.350493)
(-2.34701 1.95322 1.98344)
(-0.744062 2.0304 0.428468)
(-1.63048 2.54223 2.70897)
(-1.11228 1.3325 0.433194)
(-1.70179 1.17351 2.01273)
(-0.985765 0.844632 0.425557)
(-1.31453 0.681222 1.69269)
(-0.437736 0.430578 0.443293)
(-0.506612 0.292813 1.52509)
(-0.818338 0.910934 0.266206)
(-0.938354 0.88964 0.171723)
(-1.03259 0.802115 0.718341)
(-1.02871 0.917079 0.432288)
(-0.795164 1.22086 0.253742)
(-0.961777 1.04067 0.136426)
(-1.15888 1.45872 0.756636)
(-1.03463 1.12583 0.371599)
(-0.296303 0.394199 0.306822)
(-0.234575 0.276853 0.236767)
(-0.367059 0.225479 0.977419)
(-0.258035 0.17274 0.725295)
(-0.69516 0.455828 0.232149)
(-0.578899 0.373209 0.181574)
(-1.16977 0.285454 0.958876)
(-0.876068 0.242131 0.732823)
(-0.900618 0.914878 0.548148)
(-0.942896 0.911753 0.235873)
(-1.03651 0.887585 0.477715)
(-1.02219 0.689919 0.218365)
(-0.395845 0.658373 0.232467)
(-0.296226 0.546787 0.52789)
(-2.07189 0.52994 1.78088)
(-2.77488 0.614375 0.470676)
(-1.36044 0.845893 0.639784)
(-1.66556 0.854272 0.196503)
(-2.70692 1.85957 2.22515)
(-3.52558 1.93874 0.586473)
(-1.41573 1.25611 0.573257)
(-1.62397 1.31202 0.173559)
(-1.57628 0.799434 1.31266)
(-2.2268 0.673354 0.399821)
(-1.40395 0.8216 0.672235)
(-1.84735 0.572969 0.222493)
(-0.839317 0.38504 1.17683)
(-1.33497 0.407015 0.368543)
(-0.171671 0.353131 0.429718)
(-0.0591778 0.568347 0.213005)
(-0.17905 0.186772 0.548892)
(-0.065803 0.247263 0.221233)
(-0.515157 0.477567 0.46626)
(-0.212428 0.745299 0.250141)
(-0.694045 0.291775 0.531233)
(-0.261441 0.365964 0.212033)
(-0.517589 0.50591 0.564505)
(-0.197622 0.987181 0.327695)
(-0.52494 0.359211 0.455048)
(-0.17246 0.648169 0.206982)
(-0.878361 0.132048 0.638479)
(-0.285886 0.380111 0.23727)
(-1.13249 0.110579 0.2147)
(-0.390311 0.282644 0.0772799)
(-1.23521 0.762114 0.705091)
(-0.636622 0.951184 0.498576)
(-1.14422 0.822877 0.417)
(-0.678946 0.968535 0.304444)
(-1.10858 0.9051 0.700763)
(-0.716065 0.894944 0.569821)
(-0.990667 0.958944 0.372561)
(-0.718148 0.903794 0.310733)
(-0.949543 0.736484 0.429998)
(-0.579015 1.02028 0.302431)
(-0.952029 0.725649 0.647771)
(-0.512339 0.990475 0.454035)
(-1.19125 0.826736 0.259731)
(-0.743802 0.974662 0.187612)
(-1.20008 0.835267 0.112217)
(-0.74778 0.978954 0.0905429)
(-1.05677 0.989566 0.225767)
(-0.753437 0.904446 0.187558)
(-1.07304 0.99723 0.0945087)
(-0.752067 0.901384 0.0923298)
(-1.02611 0.691203 0.271651)
(-0.654325 1.03468 0.181941)
(-1.06452 0.673721 0.12301)
(-0.668749 1.04424 0.0774823)
(-0.992953 0.944365 0.409552)
(-0.454387 1.20519 0.232305)
(-0.496484 1.19227 0.32404)
(-0.63407 1.82155 0.390266)
(-0.989514 1.00122 0.589961)
(-0.500117 1.42346 0.430245)
(-0.443225 1.17982 0.49298)
(-0.652406 2.01463 0.68274)
(-1.05354 0.89655 0.257203)
(-0.448497 1.04754 0.128223)
(-0.553203 1.19846 0.181624)
(-0.633227 1.7369 0.217195)
(-1.10938 0.890763 0.115757)
(-0.458576 0.976205 0.0513384)
(-0.596261 1.21516 0.0685959)
(-0.657507 1.72247 0.0757933)
(-0.220046 0.354439 0.614197)
(-0.241055 0.483005 1.08153)
(-0.0767917 0.922395 0.407218)
(-0.161404 1.69066 1.2008)
(-0.629817 0.422615 0.701008)
(-0.665272 0.495664 1.04614)
(-0.259184 1.15023 0.492517)
(-0.488874 1.86057 1.23886)
(-0.802611 0.498309 0.770233)
(-0.867419 0.506258 0.926445)
(-0.431176 1.40529 0.616326)
(-0.745358 1.97773 1.18002)
(-0.48613 1.08132 0.726921)
(0.0184819 1.04913 0.753361)
(-0.645952 1.01864 0.643198)
(-0.88624 1.08451 0.648158)
(-0.533774 1.78859 0.699985)
(0.0398894 1.03145 0.747523)
(-0.242979 1.06176 0.807602)
(-0.601449 1.02415 0.900324)
(-1.03042 0.961923 0.989113)
(-0.853835 2.09823 1.41447)
(-0.487804 0.949923 0.614562)
(-0.636124 1.0102 0.558737)
(-0.616468 0.989977 0.547896)
(-0.585578 1.12365 0.639449)
(-0.94793 2.33023 0.974522)
(-0.19599 0.123135 1.26063)
(-0.148832 0.149058 1.12601)
(-0.116823 0.274946 1.4533)
(-0.111259 0.704364 1.40233)
(-0.537755 0.169476 1.15007)
(-0.413218 0.197211 1.06329)
(-0.355013 0.358863 1.42191)
(-0.324427 0.746405 1.36101)
(-0.650508 0.237111 0.982412)
(-0.486807 0.199128 0.958652)
(-0.466087 0.462015 1.31459)
(-0.398248 0.797479 1.29503)
(-0.197081 0.961786 0.552057)
(-0.260904 0.853841 0.441964)
(-0.443375 0.9373 0.621103)
(-0.466242 0.819598 0.560771)
(-0.65703 0.908865 0.740927)
(-0.574449 0.730577 0.701626)
(-0.769096 0.735658 0.855973)
(-0.622618 0.596882 0.851334)
(-0.620682 0.577028 1.17794)
(-0.510084 0.879708 1.22885)
(-0.383467 0.900722 0.50764)
(-0.346435 0.791267 0.460862)
(-0.532636 0.978934 0.569066)
(-0.341714 0.882343 0.600969)
(-0.531012 0.933018 0.651296)
(-0.312753 0.807561 0.748742)
(-0.505609 0.854463 0.773056)
(-0.286584 0.725657 0.919116)
(-0.658153 0.601324 1.0163)
(-0.394193 0.853179 1.22079)
(-0.454963 1.00171 0.451902)
(-0.129883 1.09267 0.348132)
(-0.416104 1.0069 0.290862)
(-0.37896 1.13437 0.344766)
(-0.527319 0.906256 0.529676)
(-0.604904 0.897839 0.592894)
(-0.588535 0.895494 0.348739)
(-0.777699 0.924542 0.517012)
(-0.366748 0.987984 0.279151)
(-0.332876 0.985477 0.336335)
(-0.434658 0.97999 0.440107)
(-0.0520227 0.952574 0.359352)
(-0.379428 1.00177 0.0745699)
(-0.630837 1.14517 0.217347)
(-0.362968 1.00192 0.0198339)
(-0.686292 1.15011 0.0649109)
(-0.585938 0.874749 0.165941)
(-0.971912 0.946273 0.331806)
(-0.594558 0.871641 0.0435316)
(-1.0436 0.949266 0.10101)
(-0.326105 0.989423 0.0544434)
(-0.587094 0.981231 0.204967)
(-0.305241 0.992649 0.011437)
(-0.635431 0.983542 0.060493)
(-0.470042 0.897463 0.296411)
(-0.295237 0.844033 0.28504)
(-0.684764 0.598835 0.352156)
(-0.238431 0.698715 0.224415)
(-0.44869 0.897821 0.488046)
(-0.00827197 0.829052 0.392361)
(-0.586817 0.593285 0.589514)
(0.0228537 0.718031 0.416766)
(-0.462472 0.90468 0.0863885)
(-0.461584 0.836354 0.150721)
(-0.718902 0.610714 0.173579)
(-0.308615 0.694535 0.101693)
(-0.398496 0.90762 0.0779322)
(-0.550082 0.826357 0.0965076)
(-0.65196 0.629419 0.112506)
(-0.404493 0.692219 0.082354)
(-0.103373 0.0859116 0.903688)
(-0.0804715 0.0459346 0.5497)
(-0.0581013 0.0258725 0.176576)
(-0.0774534 0.0440031 1.01635)
(-0.0628873 0.0215408 0.586031)
(-0.0476792 0.0181053 0.192)
(-0.292481 0.122786 0.865977)
(-0.192544 0.0531989 0.541889)
(-0.133773 0.0321032 0.185643)
(-0.208992 0.0807647 0.990647)
(-0.133345 0.0516483 0.583114)
(-0.0932547 0.0351035 0.191132)
(-0.317828 0.124076 0.787666)
(-0.218983 0.0709856 0.494647)
(-0.176347 0.0573956 0.16338)
(-0.246359 0.135712 0.952228)
(-0.155238 0.0865711 0.577204)
(-0.125137 0.0652766 0.191901)
(-0.193787 0.685649 0.316129)
(-0.127784 0.489305 0.192224)
(-0.108012 0.373894 0.0597961)
(-0.36791 0.67486 0.46677)
(-0.204505 0.499447 0.310076)
(-0.140171 0.39017 0.104983)
(-0.401448 0.517498 0.607381)
(-0.220333 0.37982 0.410217)
(-0.1395 0.30415 0.14)
(-0.420308 0.40012 0.739996)
(-0.254396 0.262879 0.48026)
(-0.184838 0.200884 0.159422)
(-0.33876 0.210554 0.931556)
(-0.173617 0.11395 0.583094)
(-0.10908 0.078129 0.199808)
(-0.51184 0.649082 0.355508)
(-0.343787 0.470861 0.220673)
(-0.234525 0.354769 0.077711)
(-0.378414 0.723047 0.472314)
(-0.24711 0.513361 0.341368)
(-0.15291 0.382702 0.129646)
(-0.391383 0.586967 0.604604)
(-0.23528 0.38162 0.438501)
(-0.134782 0.274818 0.162396)
(-0.375943 0.418645 0.758097)
(-0.212333 0.246034 0.527599)
(-0.115597 0.174077 0.189658)
(-0.458388 0.220639 0.944765)
(-0.216149 0.110028 0.596522)
(-0.0893529 0.0695105 0.212085)
(-0.477672 1.16557 0.0095907)
(-0.625768 1.09596 0.0806102)
(-0.394836 1.30966 0.110718)
(-0.49126 1.12757 0.163463)
(-0.563175 1.36624 0.104874)
(-0.792936 1.13616 0.113458)
(-0.520879 1.71055 0.256518)
(-0.720504 1.23572 0.236914)
(-3.36426e-05 0.846108 0.0224166)
(-0.0266849 0.802088 0.0332444)
(0.0189324 0.847497 0.0238848)
(-0.00852204 0.740173 0.0345142)
(-0.123976 0.959529 0.0146266)
(-0.127722 0.84746 0.0460222)
(-0.0613506 0.960809 0.0287345)
(-0.036888 0.772933 0.0611032)
(-0.0539849 0.945342 0.107257)
(-0.117852 0.911032 0.0543974)
(-0.407402 0.867951 0.14509)
(-0.568195 0.899671 0.0868422)
(-0.256036 1.07816 0.071318)
(-0.161664 1.00021 0.118661)
(-0.468139 1.21606 0.129021)
(-0.468202 1.25139 -0.00260564)
(-0.763576 1.37657 0.277731)
(-0.843753 1.44385 0.0372022)
(0.00948999 0.973843 -0.121411)
(0.16599 1.02799 -0.0298469)
(-0.337583 0.875631 0.0421376)
(-0.313966 0.859704 0.00655887)
(-0.294416 1.01787 0.00806179)
(-0.2236 1.05489 -0.0143415)
(-0.040979 0.587775 0.31575)
(-0.0211646 0.295524 0.12096)
(-0.0326646 0.559222 0.0838032)
(-0.016938 0.328922 0.0442509)
(-0.0862489 0.60373 0.322104)
(-0.0112888 0.297562 0.124145)
(-0.00725849 0.563171 0.105633)
(0.0153206 0.32562 0.0546924)
(-0.363835 0.604467 0.321702)
(-0.0829722 0.297792 0.131445)
(-0.264885 0.573136 0.145228)
(-0.069629 0.341186 0.082459)
(-0.364593 0.564671 0.0913114)
(-0.104961 0.35775 0.0523232)
(-0.431917 0.575149 0.0113428)
(-0.124192 0.351455 0.0149169)
(-0.419714 0.831216 0.51767)
(-0.491321 0.667961 0.440453)
(-0.382971 0.852695 0.232017)
(-0.477158 0.680944 0.229887)
(-0.692241 0.954709 0.620164)
(-0.67508 0.82666 0.561463)
(-0.656981 0.99682 0.296286)
(-0.635552 0.835885 0.284561)
(-0.245232 0.80153 0.17985)
(-0.345711 0.530755 0.177001)
(-0.283883 0.811937 0.399572)
(-0.344456 0.513256 0.313138)
(-0.400793 0.890528 0.121853)
(-0.459138 0.685291 0.127047)
(-0.433528 0.909987 0.0450261)
(-0.458122 0.678541 0.0627948)
(-0.684416 1.04627 0.167351)
(-0.623017 0.839552 0.161384)
(-0.712774 1.05711 0.0687537)
(-0.620196 0.831867 0.0797909)
(-0.243708 0.80844 0.0875759)
(-0.333204 0.537094 0.0985471)
(-0.257513 0.811364 0.0266011)
(-0.333444 0.533031 0.0515668)
(0.0036859 0.483862 0.138726)
(-0.029289 0.292908 0.0745939)
(-0.230567 0.389587 0.130492)
(-0.103863 0.23802 0.0692133)
(0.0165717 0.436965 0.233711)
(-0.0177557 0.25769 0.104135)
(-0.213009 0.367358 0.205687)
(-0.0907449 0.220445 0.101219)
(-0.00945718 0.503179 0.0668757)
(-0.0370925 0.31289 0.0459148)
(-0.23366 0.398451 0.0744382)
(-0.112629 0.245403 0.0392967)
(-0.0190067 0.505471 0.0165636)
(-0.0414937 0.322517 0.0170793)
(-0.229958 0.396033 0.038563)
(-0.113221 0.245455 0.0171176)
(0.0188105 0.0846517 0.354471)
(0.0213895 0.0406606 0.201302)
(-0.00627983 0.150101 0.147148)
(0.000664914 0.0813526 0.123611)
(0.0849167 0.0887223 0.357518)
(0.0804819 0.0481473 0.214377)
(0.00494478 0.158104 0.146815)
(0.0138166 0.0943446 0.123691)
(0.0111363 0.107095 0.385049)
(0.050241 0.0713895 0.241959)
(-0.0437622 0.17338 0.149179)
(-0.0187278 0.120023 0.124134)
(0.357592 0.440217 0.567009)
(0.394211 0.739892 0.683932)
(0.17461 0.304251 0.460123)
(0.126538 0.283524 0.26729)
(0.0192145 0.196709 0.113933)
(0.425146 0.699698 0.637414)
(0.380564 0.446535 0.52036)
(0.127549 0.239201 0.423854)
(0.178459 0.237579 0.301321)
(0.0323152 0.157122 0.142846)
(-0.450528 0.762042 0.594193)
(-0.330076 0.56074 0.476665)
(-0.254382 0.418361 0.33582)
(-0.200415 0.305838 0.220247)
(-0.087315 0.188866 0.101137)
(0.0174101 0.019062 0.131111)
(0.0127208 0.0101088 0.0897925)
(0.00253796 0.0476381 0.101628)
(0.00200727 0.0329058 0.0885896)
(0.0582579 0.0251489 0.147436)
(0.0445756 0.0125324 0.0980698)
(0.00906639 0.0612241 0.107476)
(0.00663493 0.0435479 0.0926349)
(0.0597861 0.0430094 0.176878)
(0.0587961 0.0240562 0.118458)
(-0.00541404 0.0845053 0.117045)
(-0.00382542 0.0613167 0.100618)
(0.178492 0.670789 0.471137)
(0.0527076 0.576763 0.331573)
(0.25122 0.410825 0.380471)
(0.122213 0.340207 0.252577)
(0.0905717 0.240176 0.257477)
(0.0504747 0.202258 0.188083)
(0.0985183 0.193236 0.200491)
(0.0678719 0.141353 0.147264)
(0.00384627 0.125626 0.115193)
(-0.00851637 0.0908018 0.107553)
(-0.167749 0.653118 0.394211)
(-0.098254 0.529138 0.336576)
(-0.063441 0.46371 0.30472)
(0.0107857 0.349331 0.251276)
(-0.0437243 0.331406 0.222957)
(0.00948792 0.242413 0.184126)
(-0.0414505 0.234834 0.15943)
(-0.00362378 0.168361 0.136856)
(-0.0253032 0.156064 0.0876635)
(-0.021387 0.124662 0.101193)
(-0.199868 0.501262 0.271262)
(-0.16049 0.343662 0.180741)
(-0.362365 0.5178 0.172154)
(-0.206088 0.350933 0.10756)
(-0.331959 0.655605 0.398612)
(-0.292265 0.489723 0.29789)
(-0.492707 0.671018 0.264108)
(-0.367269 0.505615 0.212605)
(-0.24844 0.39485 0.120564)
(-0.133451 0.264343 0.0726586)
(-0.127587 0.373676 0.183025)
(-0.108152 0.253576 0.126955)
(-0.422644 0.525749 0.158088)
(-0.181694 0.353535 0.0748423)
(-0.458573 0.523273 0.0422494)
(-0.200806 0.353503 0.0217311)
(-0.54594 0.676527 0.188286)
(-0.378042 0.526667 0.136195)
(-0.577595 0.672406 0.0482382)
(-0.407003 0.527566 0.0404512)
(-0.299897 0.407195 0.11934)
(-0.111579 0.265891 0.0511158)
(-0.330334 0.405772 0.0342477)
(-0.126639 0.268233 0.0153263)
(-0.155491 0.281952 0.0777375)
(-0.099785 0.190542 0.0624331)
(-0.0727173 0.184836 0.0462817)
(-0.0943706 0.154855 0.0594695)
(-0.0961624 0.26594 0.114959)
(-0.0879081 0.179171 0.0927217)
(-0.0599118 0.175608 0.0610593)
(-0.0864038 0.142515 0.075578)
(-0.179438 0.296116 0.0781203)
(-0.0961629 0.196694 0.0425607)
(-0.0812544 0.189915 0.0330089)
(-0.108179 0.163375 0.0400538)
(-0.218489 0.301516 0.0145865)
(-0.103023 0.196294 0.00518105)
(-0.111929 0.196927 -0.00835189)
(-0.109674 0.164914 0.00106119)
(0.00889706 0.0167917 0.054204)
(0.00702621 0.0123864 0.0225628)
(0.00693383 0.00889862 0.00646444)
(0.000984978 0.075129 0.053119)
(0.00241825 0.0324962 0.0150852)
(0.00237906 0.022743 0.00402033)
(0.0331446 0.016448 0.0613267)
(0.026898 0.0140589 0.0269567)
(0.0233218 0.010834 0.0080998)
(0.00395536 0.0851436 0.0566389)
(0.00717286 0.0399712 0.0169708)
(0.0063888 0.0290695 0.0047109)
(0.0476741 0.0258229 0.0714049)
(0.0395268 0.0242205 0.0333081)
(0.0337669 0.0212439 0.00928538)
(-0.00424434 0.100992 0.0620762)
(0.0073455 0.0530787 0.0195211)
(0.00845472 0.0402574 0.0050353)
(0.0144407 0.445457 0.215124)
(0.0123023 0.327243 0.121156)
(0.00327738 0.259227 0.0348619)
(0.0582015 0.260348 0.153375)
(0.0522541 0.194908 0.0802594)
(0.0422766 0.159237 0.0231517)
(0.0399753 0.160764 0.11614)
(0.0387679 0.121341 0.0582322)
(0.0341553 0.101529 0.0172701)
(0.0506167 0.113572 0.087949)
(0.0426108 0.0844215 0.0414482)
(0.0358764 0.0689617 0.0109969)
(-0.0137264 0.124582 0.0674834)
(0.00261177 0.069872 0.0212308)
(0.00380433 0.0529309 0.00461111)
(-0.131333 0.399031 0.250402)
(-0.0686761 0.281315 0.136659)
(-0.0355915 0.213046 0.0433222)
(-0.00383551 0.249855 0.180797)
(0.0160278 0.173081 0.0920422)
(0.023929 0.132863 0.0279518)
(0.00026852 0.172614 0.131625)
(0.019644 0.117693 0.0651461)
(0.025396 0.0908126 0.0195967)
(-0.00115422 0.135793 0.0959456)
(0.016087 0.0901087 0.043273)
(0.01929 0.0674839 0.0120691)
(-0.026858 0.161465 0.073732)
(0.00294552 0.0812346 0.0208626)
(0.00599115 0.0588303 0.00545218)
(-0.000263447 0.1352 0.0382426)
(-2.3942e-05 0.0611333 0.0113292)
(3.4989e-05 0.0275176 0.00277758)
(0.00012837 0.0116404 0.000124003)
(0.00400711 0.153202 0.0157903)
(0.00142932 0.06721 0.00479876)
(0.000807738 0.029408 0.00129117)
(0.000467544 0.0121858 0.000191524)
(-0.001796 0.135677 0.0395241)
(-0.000418737 0.0610998 0.0118834)
(0.000711292 0.027562 0.00314383)
(0.000816425 0.0116625 0.000419321)
(0.00535559 0.156026 0.0187853)
(0.00202485 0.0687024 0.00588731)
(0.00208702 0.0304139 0.00221692)
(0.00135556 0.0126967 0.000798689)
(-0.00726904 0.135354 0.0409927)
(-0.00178401 0.0605017 0.0124897)
(0.00103893 0.0284399 0.00394911)
(0.0016516 0.0123027 0.00104201)
(-0.00210137 0.159284 0.0283285)
(6.95197e-05 0.0695243 0.00932567)
(0.000949821 0.0321724 0.00224119)
(0.000848668 0.013757 0.000343746)
(-0.00368961 0.17119 0.0160505)
(-0.000403412 0.0733646 0.00602403)
(-5.89471e-05 0.0315241 0.000377534)
(4.82549e-05 0.0129471 -0.000580488)
(-0.00703119 0.17375 0.00852847)
(-0.00166689 0.0751729 0.00409459)
(0.000226266 0.0314893 0.00111072)
(0.000505575 0.0128137 0.000318874)
(-0.0222883 0.142674 0.0293974)
(-0.00587531 0.0644692 0.00964846)
(-0.00152014 0.0301543 0.00205634)
(3.33489e-05 0.0128983 -0.000472592)
(-0.0289975 0.117585 0.0229881)
(-0.00731509 0.056228 0.0073148)
(-0.00250389 0.0273444 0.00242608)
(0.000563948 0.0119282 -0.000126327)
(-0.0154856 0.125266 0.0380275)
(-0.00375118 0.0581588 0.0117085)
(-0.000360379 0.0283454 0.00342549)
(0.00102842 0.0125804 0.000408408)
(-0.0237521 0.109065 0.0317358)
(-0.00580253 0.053074 0.00959366)
(-0.00247862 0.0263072 0.00322862)
(0.000274125 0.0116538 -0.000221006)
(-0.023437 0.153703 0.0193816)
(-0.00627649 0.0688446 0.00690312)
(-0.000984973 0.0309868 0.00160453)
(0.000585746 0.0129276 -0.000157592)
(-0.0321821 0.122262 0.0148171)
(-0.00832586 0.0582981 0.0050608)
(-0.00266712 0.0278255 0.00187574)
(0.000816412 0.0120466 0.000215821)
(-0.0244684 0.158679 0.00918119)
(-0.00679776 0.0712761 0.0038368)
(-0.000806598 0.0315191 0.00127992)
(0.000932616 0.0131407 0.000453874)
(-0.0338675 0.123713 0.00680678)
(-0.00897811 0.0594963 0.00273912)
(-0.00287637 0.0282908 0.00121384)
(0.000806851 0.0123314 0.000445925)
(-0.000195744 0.10008 0.0468227)
(-6.23454e-05 0.0512534 0.0137757)
(6.70187e-05 0.0248806 0.00346439)
(0.000201912 0.0110034 -0.000107868)
(0.000745235 0.0676194 0.0425176)
(0.00025777 0.0403908 0.0124356)
(-2.19934e-05 0.0216964 0.00430902)
(0.00016608 0.0100388 -7.53358e-05)
(0.000639281 0.100411 0.0462397)
(0.000183719 0.0510973 0.0136311)
(0.000511215 0.0249444 0.00346955)
(0.000692822 0.0110482 -0.000122232)
(0.00325148 0.0705046 0.0412692)
(0.00107211 0.0411192 0.0120028)
(0.000131568 0.0219102 0.00426006)
(0.000502241 0.0101215 -0.000107974)
(-0.00902716 0.103298 0.0446431)
(-0.00249343 0.05134 0.0131741)
(-0.000155752 0.0255306 0.00403652)
(0.000921003 0.0113887 0.000342167)
(-0.00379974 0.0789834 0.0389028)
(-0.0008129 0.0433554 0.011203)
(-0.000340533 0.0226764 0.00448329)
(0.000792646 0.0103833 0.000177275)
(-0.00256812 0.102566 0.0376832)
(-8.34927e-06 0.0502889 0.0113429)
(0.000695907 0.0253647 0.0042537)
(0.0011941 0.0116768 0.00120541)
(-0.000376467 0.0866229 0.0422386)
(0.000371308 0.0450829 0.0120759)
(-0.000371878 0.0237703 0.0055574)
(0.000761875 0.0107429 0.000338419)
(-0.0200606 0.0972817 0.0317747)
(-0.00476163 0.0491104 0.00946062)
(-0.00205376 0.0250117 0.00379309)
(0.000888864 0.0114233 0.000486339)
(0.00146018 0.0420454 0.030247)
(0.00051344 0.0324893 0.00839798)
(0.000164043 0.0171222 0.00341052)
(0.000187728 0.00479887 0.000258357)
(0.00262611 0.0209061 0.0112951)
(0.000871357 0.0285242 0.00297949)
(0.000283065 0.0154357 0.00100057)
(0.000128549 0.0045444 0.000239823)
(0.00306038 0.0467211 0.0319142)
(0.00115247 0.0340211 0.00886738)
(0.000203109 0.0177035 0.00352772)
(0.000410567 0.00506817 0.000280163)
(0.00689757 0.0253259 0.0120697)
(0.00231982 0.0301084 0.00319537)
(0.000667655 0.015923 0.00110852)
(0.000309179 0.00467705 0.000301418)
(0.00187252 0.0562431 0.0335575)
(0.00104289 0.036865 0.00931743)
(0.000100063 0.0184768 0.00380732)
(0.000604534 0.00512497 0.000374988)
(0.00921926 0.0337472 0.0128199)
(0.00323279 0.0329379 0.00341233)
(0.000955033 0.0166172 0.00120742)
(0.00045153 0.00479105 0.000359853)
(-0.0014406 0.0689429 0.0308586)
(0.00056586 0.040485 0.00859885)
(-9.26907e-06 0.01988 0.0039502)
(0.000834038 0.00561177 0.000478699)
(0.00805988 0.0443768 0.0128743)
(0.0033643 0.0363633 0.00344499)
(0.00101212 0.0176764 0.00140341)
(0.000507292 0.00507227 0.000450221)
(-0.00937229 0.0792252 0.0280584)
(-0.00112447 0.044074 0.0080349)
(-0.00107216 0.0216393 0.00374385)
(0.000496807 0.00644048 0.000591197)
(0.00352188 0.0509927 0.01172)
(0.00260909 0.0394111 0.00337046)
(0.000670437 0.0186937 0.00158002)
(0.000415016 0.00533229 0.000534866)
(-0.0219091 0.0874441 0.0168109)
(-0.00403465 0.048193 0.00494937)
(-0.00184386 0.0223969 0.00175889)
(0.000388388 0.00632118 0.00022071)
(-0.00666797 0.0536612 0.00929236)
(-0.000424556 0.0433928 0.00308981)
(-0.000122363 0.0205135 0.00119431)
(0.00014498 0.00578416 0.000441085)
(-0.0165262 0.0843492 0.0214418)
(-0.00247391 0.046507 0.00606331)
(-0.00156732 0.0219492 0.00251762)
(0.000342668 0.0062804 0.000359523)
(-0.00302402 0.0506236 0.0105879)
(0.000897794 0.041687 0.00329829)
(0.00026436 0.0196294 0.00143189)
(0.000288368 0.00554329 0.000513285)
(-0.0260051 0.0888805 0.0113752)
(-0.00537224 0.0491583 0.00360877)
(-0.00215064 0.0223416 0.00124166)
(0.000408348 0.00598619 0.000203359)
(-0.00929627 0.0545115 0.00659008)
(-0.00140387 0.0445466 0.00238819)
(-0.000346806 0.0208812 0.000858946)
(6.63238e-05 0.00581649 0.000348912)
(-0.0284276 0.090489 0.00539093)
(-0.00632064 0.0499093 0.00206262)
(-0.00241147 0.0226681 0.000885156)
(0.000316446 0.006047 0.000324022)
(-0.0110753 0.056546 0.00350394)
(-0.00211657 0.0453576 0.00152094)
(-0.000539536 0.0212508 0.000637232)
(-1.34618e-06 0.00590784 0.000300276)
(6.91849e-05 0.00507288 6.09117e-05)
(2.19005e-05 0.00232747 2.11954e-05)
(6.86243e-06 0.000996886 7.11304e-06)
(2.21427e-06 0.000388839 2.36941e-06)
(8.80462e-07 0.000100134 9.54629e-07)
(0.000102825 0.00512436 3.58469e-05)
(3.27031e-05 0.00233915 1.13609e-05)
(1.05762e-05 0.00100056 3.7529e-06)
(3.49019e-06 0.000390021 1.25095e-06)
(1.40796e-06 0.000100406 5.05625e-07)
(0.000164901 0.00514371 0.000109551)
(4.91465e-05 0.00236167 3.66582e-05)
(1.52998e-05 0.0010078 1.23897e-05)
(4.94732e-06 0.000392185 4.18571e-06)
(1.9731e-06 0.000100884 1.70839e-06)
(0.000207508 0.00526712 9.27919e-05)
(6.74932e-05 0.00238246 2.95841e-05)
(2.22245e-05 0.00101423 1.00009e-05)
(7.418e-06 0.000394315 3.39855e-06)
(3.01593e-06 0.000101382 1.39522e-06)
(0.000211016 0.00533334 0.00014528)
(5.95765e-05 0.00240517 5.15961e-05)
(1.84241e-05 0.00102052 1.80667e-05)
(5.97134e-06 0.0003961 6.22666e-06)
(2.38945e-06 0.000101768 2.57557e-06)
(0.000253343 0.00547345 0.000211773)
(8.51179e-05 0.00242567 8.16029e-05)
(2.8322e-05 0.00102838 2.89762e-05)
(9.51863e-06 0.000398922 1.00594e-05)
(3.8901e-06 0.000102447 4.18618e-06)
(0.000107933 0.00545773 0.000186569)
(3.86248e-05 0.00246747 8.05893e-05)
(1.31396e-05 0.00104565 2.98925e-05)
(4.48447e-06 0.000404897 1.0652e-05)
(1.85574e-06 0.000103861 4.51727e-06)
(7.64677e-05 0.00553664 0.000229352)
(2.22014e-05 0.00251536 9.22249e-05)
(7.02549e-06 0.00106573 3.40691e-05)
(2.34012e-06 0.000412125 1.22628e-05)
(9.61169e-07 0.000105609 5.26948e-06)
(0.000175474 0.00551507 0.00013063)
(5.56537e-05 0.00245598 6.0529e-05)
(1.7814e-05 0.00103773 2.26064e-05)
(5.87473e-06 0.000401731 8.01803e-06)
(2.37808e-06 0.000103073 3.37602e-06)
(7.69698e-05 0.00566409 0.000125619)
(2.23516e-05 0.00249183 5.46553e-05)
(6.93735e-06 0.00104757 2.0259e-05)
(2.26145e-06 0.000404596 7.19187e-06)
(9.11478e-07 0.000103706 3.03523e-06)
(0.000221896 0.00551115 0.000135597)
(6.83256e-05 0.00243574 5.49515e-05)
(2.20171e-05 0.00102923 1.97331e-05)
(7.29201e-06 0.000398735 6.86288e-06)
(2.95574e-06 0.00010236 2.85353e-06)
(8.32438e-05 0.00564354 0.000165674)
(2.40745e-05 0.00247104 6.3829e-05)
(7.47455e-06 0.00103905 2.22719e-05)
(2.4299e-06 0.00040165 7.6575e-06)
(9.75304e-07 0.000103009 3.16922e-06)
(0.000121778 0.00553343 0.000130729)
(3.40564e-05 0.00249098 6.24473e-05)
(1.04664e-05 0.00105258 2.39574e-05)
(3.40879e-06 0.000406945 8.6667e-06)
(1.37657e-06 0.000104315 3.70537e-06)
(7.12263e-05 0.00575958 0.000141884)
(1.85867e-05 0.00252468 5.82854e-05)
(5.66558e-06 0.00106039 2.17101e-05)
(1.85252e-06 0.000409103 7.80421e-06)
(7.51983e-07 0.000104785 3.33395e-06)
(0.000110106 0.00566226 0.000181959)
(2.31163e-05 0.00253881 7.2546e-05)
(6.0403e-06 0.00107117 2.69144e-05)
(1.82224e-06 0.000413569 9.7341e-06)
(7.09588e-07 0.000105916 4.19949e-06)
(5.90115e-05 0.00589231 0.000153249)
(1.09843e-05 0.00256776 5.93456e-05)
(2.68185e-06 0.00107617 2.19512e-05)
(7.85571e-07 0.000414675 7.95602e-06)
(3.02333e-07 0.000106134 3.44063e-06)
(5.88315e-05 0.00506314 3.62718e-05)
(1.77222e-05 0.00231896 1.63132e-05)
(5.40993e-06 0.000993491 5.65074e-06)
(1.71491e-06 0.000387705 1.88044e-06)
(6.73619e-07 9.98736e-05 7.53699e-07)
(5.15215e-05 0.00510243 1.04552e-05)
(1.55263e-05 0.00231607 6.23279e-06)
(4.73223e-06 0.000991463 2.20755e-06)
(1.49223e-06 0.000386995 7.33773e-07)
(5.82901e-07 9.97099e-05 2.93105e-07)
(0.00015484 0.00513713 6.71002e-05)
(4.42309e-05 0.00234666 2.67381e-05)
(1.34469e-05 0.00100211 9.10632e-06)
(4.28371e-06 0.000390295 3.04561e-06)
(1.69105e-06 0.000100446 1.23135e-06)
(0.000139379 0.00517159 2.19713e-05)
(4.0228e-05 0.00233879 1.02196e-05)
(1.22125e-05 0.000998434 3.50753e-06)
(3.87067e-06 0.000389069 1.16614e-06)
(1.52035e-06 0.000100165 4.68814e-07)
(0.000195956 0.00529883 9.40401e-05)
(5.21345e-05 0.00239142 3.52432e-05)
(1.55981e-05 0.00101491 1.21511e-05)
(4.96214e-06 0.00039412 4.13016e-06)
(1.96253e-06 0.000101297 1.69184e-06)
(0.000187164 0.00532409 6.78032e-05)
(5.30508e-05 0.00238048 2.32745e-05)
(1.6256e-05 0.0010104 7.65922e-06)
(5.21605e-06 0.000392614 2.54332e-06)
(2.06938e-06 0.000100949 1.02853e-06)
(0.000195492 0.00547912 0.000168594)
(5.71262e-05 0.00243358 5.8967e-05)
(1.80896e-05 0.00102666 1.99928e-05)
(5.93725e-06 0.000397655 6.76676e-06)
(2.39262e-06 0.00010209 2.77195e-06)
(0.000134437 0.00549767 0.000117344)
(3.92734e-05 0.002424 3.92505e-05)
(1.22872e-05 0.00102307 1.29293e-05)
(3.99582e-06 0.000396467 4.31088e-06)
(1.59919e-06 0.000101814 1.75029e-06)
(9.76581e-05 0.00562774 0.00022036)
(3.01374e-05 0.00245524 7.39246e-05)
(9.76901e-06 0.00103314 2.46229e-05)
(3.24291e-06 0.000399678 8.27693e-06)
(1.31594e-06 0.00010255 3.38091e-06)
(-0.00125678 0.721635 0.128835)
(-0.0120738 1.12559 0.296789)
(0.0057279 0.737083 0.134984)
(-0.0270362 1.12141 0.295973)
(0.0257223 0.7544 0.152171)
(-0.0293744 1.10732 0.294809)
(0.0638101 0.749235 0.176084)
(-0.0109409 1.07885 0.301089)
(0.0950219 0.688645 0.175549)
(0.0435231 1.00008 0.300536)
(-0.0134345 0.605416 0.0695376)
(-0.0491113 0.691384 0.103847)
(0.0647405 0.616139 0.11436)
(0.0559584 0.744875 0.177477)
(-0.0491514 0.604297 0.0355435)
(-0.0947792 0.676352 0.0503109)
(-0.071135 0.614308 0.0083329)
(-0.113077 0.6811 0.0134808)
(-0.0462098 0.661115 0.69304)
(-0.0115433 0.115684 0.1728)
(-0.00285283 0.025667 0.042619)
(-0.000743963 0.00607224 0.0110363)
(-0.000256808 0.0011385 0.00371843)
(-0.011001 0.734611 0.191614)
(-0.0066236 0.214599 0.0537681)
(-0.00102002 0.054006 0.015205)
(-0.000331969 0.0129038 0.003965)
(-0.000168779 0.00241904 0.00119869)
(-0.141996 0.657116 0.678642)
(-0.0352625 0.113362 0.168321)
(-0.0087495 0.025064 0.0415838)
(-0.00227521 0.00592518 0.0107213)
(-0.000788169 0.00111025 0.00364636)
(-0.025246 0.727871 0.19543)
(-0.00859786 0.211069 0.0595703)
(-0.00251279 0.053109 0.0156755)
(-0.000670107 0.012668 0.00416399)
(-0.000257021 0.00236141 0.00136996)
(-0.236874 0.644376 0.637086)
(-0.0590194 0.11036 0.157724)
(-0.0147218 0.0243569 0.0390074)
(-0.00385272 0.00576564 0.0100922)
(-0.00133761 0.00108237 0.00345129)
(-0.0434519 0.711787 0.189337)
(-0.0153163 0.20585 0.0573607)
(-0.00435883 0.0518309 0.015061)
(-0.00125037 0.0123815 0.00398761)
(-0.000445647 0.00231325 0.00131792)
(-0.314278 0.616971 0.57094)
(-0.0787399 0.104167 0.14106)
(-0.0198061 0.0229708 0.0350056)
(-0.00522737 0.00546322 0.00911005)
(-0.00182896 0.0010303 0.00313778)
(-0.0531524 0.68093 0.181629)
(-0.0198824 0.196774 0.0540053)
(-0.00577898 0.0497102 0.0140396)
(-0.00166674 0.0119293 0.00369571)
(-0.000593686 0.00223703 0.00121824)
(-0.388049 0.566678 0.46766)
(-0.0984825 0.0937588 0.115785)
(-0.0250695 0.0207997 0.0289554)
(-0.00669396 0.00500114 0.00760667)
(-0.0023707 0.000950824 0.0026467)
(-0.0626254 0.626859 0.16798)
(-0.0250331 0.182668 0.0489117)
(-0.00739666 0.0465874 0.0126425)
(-0.00214951 0.0112808 0.00332436)
(-0.000774684 0.00212877 0.00109842)
(-0.451366 0.482971 0.214901)
(-0.118822 0.0838437 0.0561738)
(-0.0309503 0.019442 0.0144495)
(-0.00843125 0.00480943 0.00387541)
(-0.00304038 0.000929501 0.00137174)
(-0.108298 0.491928 0.0804173)
(-0.0364053 0.152536 0.0238271)
(-0.0101429 0.0404566 0.00613291)
(-0.00284075 0.0100894 0.00159547)
(-0.00101587 0.00194219 0.000530776)
(-0.423383 0.508851 0.324223)
(-0.11074 0.0865799 0.0831883)
(-0.0285905 0.0197385 0.0211249)
(-0.0077129 0.00482697 0.00560423)
(-0.00275565 0.000926447 0.00196703)
(-0.079908 0.533119 0.119292)
(-0.0301454 0.164003 0.0348946)
(-0.00872856 0.042844 0.00904993)
(-0.00249824 0.0105329 0.00238894)
(-0.000894745 0.00200677 0.000798753)
(-0.463574 0.472188 0.124935)
(-0.122458 0.0829435 0.0330254)
(-0.032056 0.0193811 0.00856672)
(-0.00878002 0.00482156 0.00231881)
(-0.00318329 0.000934981 0.00082642)
(-0.125013 0.476181 0.0445522)
(-0.0402926 0.147221 0.0136914)
(-0.0110175 0.0392444 0.00350688)
(-0.00303984 0.00986255 0.000912021)
(-0.001084 0.00191088 0.000306563)
(-0.482548 0.469396 0.0422193)
(-0.126582 0.0821841 0.0111499)
(-0.0332286 0.0192166 0.00290799)
(-0.00911514 0.00479014 0.000792454)
(-0.0033101 0.000929257 0.000283892)
(-0.131099 0.474393 0.0160477)
(-0.042199 0.145935 0.00458091)
(-0.0115905 0.0388877 0.00110178)
(-0.00301358 0.0098154 0.000348377)
(-0.00112022 0.00190254 9.48853e-05)
(-0.0368731 1.54435 -0.0528367)
(-0.363674 2.30704 -0.0185321)
(-0.331664 2.23477 0.208179)
(-0.118664 1.48011 -0.0650781)
(0.0718236 0.812921 0.0331625)
(0.121739 0.865993 0.0355118)
(0.333067 1.21119 0.10163)
(0.496267 1.29035 0.131638)
(0.0522222 0.989826 0.0836251)