/*--------------------------------*- C++ -*----------------------------------*\
| =========                 |                                                 |
| \\      /  F ield         | OpenFOAM: The Open Source CFD Toolbox           |
|  \\    /   O peration     | Version:  2306                                  |
|   \\  /    A nd           | Website:  www.openfoam.com                      |
|    \\/     M anipulation  |                                                 |
\*---------------------------------------------------------------------------*/
FoamFile
{
    version     2.0;
    format      ascii;
    arch        "LSB;label=32;scalar=64";
    class       volScalarField;
    location    "0.6";
    object      gradTy;
}
// * * * * * * * * * * * * * * * * * * * * * * * * * * * * * * * * * * * * * //

dimensions      [0 -1 0 1 0 0 0];

internalField   nonuniform List<scalar> 
5712
(
14338.1
8272.9
22825.3
15166
25030.2
18718.3
38270.1
48830.4
50760
63555.7
33312.5
29337.8
21115.8
17030.5
10764.4
7320.33
22773.4
22241
20052.9
22927
30521.5
26016.7
36467.9
28145.7
9854.98
6921.33
5636.97
4318.5
11395.7
9330.22
7136.36
6053.26
22871.9
22793.8
22189.6
17248
16459.3
13669.7
13248.5
15359.4
21147.3
21356.8
46489.3
48468.4
31402.7
32800.6
19985.9
16833.8
20540
14324.2
9626.01
10175.4
8828.27
14208.7
4669.31
6181.57
11939.2
18632.5
7294.38
9149.1
12647.8
24679.5
8980.27
16204.2
3301.2
9502.77
2764.47
7066.09
19052.9
23779.6
20571.9
24213.4
22627.5
22373.6
23973.6
22594.9
18412.1
25507.1
18141.2
24761.9
20668.4
24366.6
20881.7
24473.8
24739.2
22611.2
24930.8
22534.6
17280.1
25866.9
16843
26106
23609.1
30129.7
29806.8
45538.7
25030.5
35586.6
29495.6
50365.6
22413.8
26188.4
29961.5
43422.4
22269.1
24405.1
30379
43061.8
8860.99
12075.1
23059.9
42266.4
10565.4
12391.6
28755.7
46514.3
12457.7
12656.4
35132.3
49443.4
27032.9
26228.2
25466.1
27112.7
44714.7
25786.3
26544.1
25603.8
24048.1
52455.7
23748.1
25255
24749.4
28091.4
58255.8
3078.38
3726.45
6873.66
17609.1
4236.91
4930.28
8971.57
18660.1
5927.77
4978.19
11550.4
19937
24044.6
21346
23432.5
20490
22721.6
18264.4
18391.4
14922.1
14425.7
21992.7
22518
19781.7
24473.4
22058.6
23325.5
20189
21361.6
18141.4
15033.1
21329.5
25042.7
27316.8
25172.4
28359.3
22656.4
22446
22387.4
23113.5
24699.6
24636.9
24499.7
23814.3
25044.2
28629.3
25048.1
28752.8
21868.7
23656.8
21791
23731.6
24735.6
24530.8
24816.2
24588.5
22436.6
21100.8
14970.9
17467.9
22445.5
20726.3
14832.1
17950.8
22617
20908.8
15267.8
17363.4
22690.5
20658.9
15735.5
17305.5
2147.79
1148.37
646.813
1100.08
538.52
452.633
3069.64
1329.97
802.58
2019.12
1291.21
877.589
3101.91
1774.64
1434.89
3392.8
2164.28
1631.92
17141.2
12232.6
9347.35
16871.5
12486.2
9754.25
12937.4
9495.5
7603.74
10003
6571.98
5022.09
5263.84
2848.75
1953.23
16227
11771.5
8869.24
18076.2
12834
9567.56
14674.2
9540.51
6870.45
10466.1
6150.85
4351.92
5515.98
2750.7
1737.76
29139.3
27399
32741.4
28189.1
34156.1
28404
42763.7
30893
21152.7
20052.2
21187.4
18504.3
23988.2
21186.5
24020.2
19323.3
23633.5
22775.8
21698.8
22491.8
26953.9
25005.3
30401.6
31284.7
34414.1
36096.3
24346.1
25699.7
21890.8
21492.6
25446.7
26372.3
14694.4
7388.09
13980.5
8223.06
15093.2
7439.05
14079.3
8140.51
15111.7
7444.79
14328.4
8529.64
14116.8
8943.75
14378.7
8786.38
20780.4
16699
21317.4
17023.6
23867.7
20666.5
24920.5
20897.1
20038.3
13268.9
20298.4
12831.4
22263.2
17132.3
22749.7
16963.5
26156.7
20988.8
26427.6
20796.7
20211
13427.3
20284.1
13325.8
12096.5
7322.7
9739.66
5950.49
10924.1
6442.24
9183.95
5511.13
12579.5
7822.25
9961.27
6135.08
12636.8
8062.93
9900.81
6136.38
2116.29
1016.52
3752.52
2033.81
2218.06
1203.68
3952.59
2358.61
2677.38
1784.74
4334.5
3000.57
11005.4
18497.3
7606.27
7088.1
4917.73
17492.5
11163.4
5980.03
5939.48
3928.05
19051
14018.5
10459
7645.96
4721.65
476.549
252.72
1190.95
822.646
628.722
313.31
1530.6
1088.7
1075.24
601.406
2112.63
1532.92
16769.7
14419.1
10270.6
8505.19
6004.4
5056.45
4830.9
3533.82
3140.66
2270.05
16327.9
13228.4
11592.7
8733.27
8285.15
6060.33
5870.86
4209.02
3901.61
3116.54
12531.6
8591.54
12945
8773.32
16390.1
12243.1
16775.4
12640.4
9871.26
6608.57
9341.9
6339.39
13143.7
8838.37
13081.8
8837.57
16913.2
13166.7
16810.2
13189.2
10179.9
6647.29
10144.3
6705.83
7048.79
4763.55
4620.89
3871.37
6648.49
4479.27
4390.21
3562.88
7402.89
4917.35
4747.87
4084.39
7537.89
4907.34
4923.17
4122.84
419.792
309.66
222.466
1878.23
812.406
568.575
411.199
351.471
270.851
2128.59
999.28
726.738
645.573
605.512
531.098
2524.81
1326.97
1006.44
11136.4
8181.07
6480.69
6508.69
4872.71
3980.92
4019.1
3033.52
2538.22
2839.29
2110.54
1724.04
3114.55
1746.8
1323.27
9975.78
7032.87
5326.16
6246.37
4327.03
3321.59
4315.36
2942.32
2270.32
3394.82
2252.72
1687.1
4036.62
2030.86
1470.76
3380
1528.33
687.941
291.011
3830.05
1680.25
735.199
304.645
3391.93
1527.5
689.049
291.564
3900.64
1717.56
760.347
317.417
3383.84
1512.54
710.998
307.566
3982.1
1738.11
804.31
343.926
4279.76
1834.11
788.102
323.676
4343.75
1879.32
787.234
320.343
3566.86
1611.73
753.859
322.457
2939.62
1405.7
683.61
298.204
3131.65
1453.97
708.636
314.509
2726.63
1326.85
657.68
291.345
3842.56
1721.11
774.671
323.19
3056.56
1457.45
695.637
301.165
3966.99
1781.9
787.977
328.519
3092.83
1487.41
707.27
308.284
2501.99
1281.34
622.016
275.084
1690.49
1009.77
542.41
250.971
2510.26
1277.43
623.609
276.204
1762.61
1027.98
547.756
253.038
2582.46
1283.5
638.265
284.718
1974.59
1083.88
566.911
259.582
2564.15
1257.22
634.119
291.919
2165.57
1127.07
594.256
268.573
2432.04
1227.76
625.292
285.582
1051.13
812.234
428.056
119.972
522.653
713.106
385.893
113.61
1168.03
850.528
442.587
126.704
633.148
752.711
398.074
116.926
1406.08
921.625
461.921
128.124
843.68
823.447
415.43
119.776
1723.57
1012.12
497
140.294
1109.42
909.082
441.909
126.807
1980.63
1101.85
540.983
161.012
1274.82
985.277
467.344
133.307
2186.1
1204.83
559.922
158.029
1341.53
1084.82
512.837
144.604
2108.73
1162.68
548.731
157.01
1265.59
1042.18
490.735
138.582
2222.01
1228.96
558.54
149.655
1362.79
1113.66
522.03
145.412
2262.22
1247.73
566.703
151.175
1413.65
1133.94
531.269
147.696
126.822
58.1868
24.9221
9.72096
2.50336
128.109
58.4787
25.0141
9.75052
2.51015
128.593
59.0419
25.1949
9.80463
2.52209
131.678
59.5615
25.3558
9.85787
2.53454
133.334
60.1292
25.5131
9.90249
2.5442
136.836
60.6417
25.7095
9.97304
2.56118
136.443
61.6867
26.1412
10.1224
2.59652
138.416
62.8841
26.6434
10.3031
2.64022
137.877
61.3996
25.9433
10.0433
2.57683
141.602
62.2957
26.1893
10.1149
2.59265
137.779
60.8936
25.7306
9.96838
2.559
141.088
61.7759
25.9764
10.0413
2.57523
138.336
62.2746
26.3144
10.1736
2.60787
143.99
63.1171
26.5097
10.2276
2.61962
141.556
63.4702
26.7793
10.3392
2.64791
147.308
64.194
26.9041
10.3669
2.65335
126.579
57.9741
24.8373
9.69262
2.49684
127.561
57.9017
24.7866
9.67487
2.49275
128.428
58.6665
25.0529
9.75737
2.51115
129.29
58.4697
24.9608
9.72672
2.50413
132.471
59.7854
25.3728
9.85299
2.53243
133.102
59.5121
25.2599
9.81534
2.52372
136.978
60.8396
25.6665
9.94139
2.55225
137.442
60.6
25.5768
9.91168
2.54535
140.693
61.3809
25.8286
9.99195
2.56374
18040.9
28139.7
18427.1
28035.3
18860
27683
18730.9
26971.3
17216.1
25002
15135.4
17284.6
15403.5
18621.9
15107.4
16908.8
15357.7
17027.5
16527.9
2892.11
641.675
151.806
28.4624
18365.3
5364.98
1350.15
322.594
60.4761
16427.9
2834.05
626.599
148.129
27.7563
18196.8
5276.72
1327.72
316.7
59.0353
16109.4
2759
608.922
144.141
27.0592
17794.7
5146.24
1295.77
309.537
57.8312
15424.3
2604.18
574.27
136.58
25.7575
17023.3
4919.35
1242.75
298.232
55.9258
14166.9
2343.97
519.992
125.029
23.7706
15671.5
4566.69
1164.69
282.021
53.2193
12074.3
2096.09
486.049
120.236
23.2375
12298.2
3813.41
1011.41
252.235
48.5547
12721.3
2164.5
493.462
120.674
23.1612
13328
4100.07
1071.1
263.322
50.1692
11804.7
2073.59
484.527
120.539
23.3745
11904.5
3680.53
981.109
246.564
47.772
11734.9
2054.6
480.416
119.754
23.2314
11859.8
3648.36
972.192
245.385
47.5635
38608.8
57676
55869.2
37002.8
20323
21649.8
30279.8
32258.7
24745.6
28459.2
40701.9
57366.3
52068
70730.8
33326.7
38785
25470.5
27706.2
13539.2
15043.1
4053.22
2348.04
189.92
102.034
109.478
87.1681
141.443
3497.41
2888.64
1566.32
1901.87
1470.2
565.309
949.529
667.689
377.96
450.184
320.074
3297.16
1286.06
511.267
435.241
717.599
578.349
372.396
294.798
206.56
166.812
317.781
277.777
3675.97
1853.05
2234.13
1111.83
769.833
1358.92
367.312
198.305
431.984
7566.04
6375.86
5318.09
4806.22
6582.42
4749.38
4553.68
4066.35
3751.16
3849.53
468.016
597.408
649.428
659.198
656.95
255.856
335.767
374.625
387.498
389.646
275.005
361.698
403.986
417.759
419.763
219.75
290.815
326.978
340.036
342.773
352.463
457.686
505.093
517.81
518.123
6751.52
5901.64
4811.49
4137.22
5545.25
5571.73
4755.57
3772.52
3178.93
3251.64
3294.67
3304.55
2953.95
2643.93
2567.31
3705.9
3269.64
2621.39
2180.22
2011.11
2856.56
2550.36
2058.04
1688.91
1517.2
1299.42
1486.65
1462.72
1379.69
1327.54
2070.06
2184.93
2015.12
1821.18
1726.22
1483.34
1611.03
1515.53
1377.8
1295.02
895.241
1071.91
1095.33
1058.9
1027.94
1045.31
1213.86
1207.03
1142.47
1095.96
766.303
932.328
965.205
940.543
915.384
6478.89
5835.74
4884.64
4315.1
5806.06
2791.9
2947.33
2751.53
2543.62
2504.75
1194.72
1402.4
1412.09
1356.67
1319.94
1029.8
1233.25
1265.32
1233.27
1208.46
1638.64
1862.36
1834.2
1746.04
1707.3
1352.26
1591.63
1612.22
1562.64
1533.1
893.107
1093.24
1145.55
1134.97
1120.92
715.308
890.262
944.361
941.138
929.612
507.943
645.04
695.624
699.639
692.565
413.44
531.974
581.449
591.266
588.89
764.163
937.082
979.167
963.319
944.358
674.002
838.638
888.791
884.294
872.156
7016.13
6113.05
5144.09
4632.59
6298.62
3859.7
3863.69
3537.99
3295.02
3342.05
4753.18
4725.24
4181.14
3821.23
4108.85
2476.21
2723.79
2636.57
2506.26
2481.47
1769.35
2032.54
2023.97
1947.15
1914.83
2957.81
3142.55
2956.92
2756.67
2733.55
881.11
1078.25
1128.39
1115.86
1100.29
488.005
621.107
672.551
679.95
675.811
1025.36
1234.33
1273.02
1246.43
1224.5
22847.8
15518.6
23299
17088.4
29304
44586.1
31083.3
44692.2
23562.5
24235.4
20623.6
23966.6
25510.6
23378
34478.9
26755.7
18530
18764.8
9088.82
8347.24
19950.1
19498
10316.4
8938.07
25437.3
26843
25020.2
21971.3
26524.5
17371
13380.5
15485.1
21612.4
21527.4
46953.2
48768.9
31077
32786.7
21393.6
17185
22202.5
14677.2
10965.4
10537.5
21224.9
24503.4
8786.16
9973.92
22925.4
27550.9
10800.6
12428
21069.6
31724.3
12123.1
19921.7
4062.79
10834.9
2929.36
7341.62
21107.5
23579.9
21195.5
24166.3
21433.5
21222.7
23201
22006.1
20706.9
26102.5
23641.2
25671.7
20880.7
24361.4
20927.8
24473.2
24406.3
22335.9
24846.2
22452.7
18163.3
26190.1
17051.1
26204.7
25666.9
32707.4
30910.6
46951.7
28219.7
39583.9
31232.4
52596.4
23456.7
27523
30557
44210.4
22568.8
24798.8
30561.9
43316.7
29389.7
31374.5
38885.9
59415.1
28942.9
29053.3
41364.4
59757.7
27529.8
26499.9
43972.6
58266.8
21115.3
20211.2
24790.4
29361
49352.4
19100
19143.5
25919.4
26034.1
57440.4
19917.5
22487.5
24558.2
30066.1
61255.5
14212.6
12134.3
15129.6
21360.4
15727.9
13490.2
15559.2
21670.8
17620.5
14172.5
16086.6
21734.2
17623.9
15554.5
17731.4
15847.1
23015.4
19670.6
20352.5
17121.5
16633.2
22353
18873.9
17214.2
21614
20275.8
22770.4
20142.9
22730.2
19344.4
16176.5
21229.2
23976
26146.7
24757.9
27799.5
21038.9
21024.6
21665.6
22414.2
24790.3
24579.9
24482.7
23642.3
24869
28387.7
25000.4
28686.2
21548.2
23326.8
21698.9
23637
24794
24524.9
24831.7
24587.4
22898.8
21384.8
15417.6
17792.9
23204.5
21187.8
15605.6
18381.7
22859.8
21068.7
15505.7
17559.3
22767
20710.6
15816.5
17371.5
10513.6
10730.5
4986.83
4392.65
11779.8
11133
5596.85
5175.97
11321.1
10000.6
6267.09
5812.96
13934.8
12463.7
14741.8
13864.9
16165.6
14512.5
13404.4
10980.6
7602.75
5753.58
15644.1
13676.3
18366.5
16084.3
16192.9
13470
12819.4
9746.94
6830.73
4381.49
23138.3
21054.2
30391.2
25163.9
27497.9
23338.8
40384.3
28576.5
20213.1
15262.1
23016.6
16669.9
19960.6
15634.2
23138.6
17090.2
21335.2
17791.2
18864.1
16614.6
19592.9
21986.3
29003.3
30888.5
33512.2
35880
23065.7
25305.5
20540.9
21115.6
23698.7
25787.7
11351.2
7512.77
12160
7865.32
11724.4
7482.94
12491.9
7797.45
11841.5
7421.67
12800.8
8133.94
13152.2
8597.23
14032.6
8655.7
16615.9
15276.6
19271.7
16131
20277.9
18724.9
23112.4
19842.3
17856.4
12701.9
16104.9
12153.6
21265.3
16655.3
22458.1
16817.1
25352.5
20472.3
26209
20643.7
19076
13084.6
19933.6
13215.9
11320.7
7229.23
9533.59
5972.15
10279.4
6741.45
9164.33
5751.1
12069.9
7672.93
9790.94
6106.52
12471.1
8000.77
9841.4
6123.02
10217.4
9437.78
6718.77
5835.61
10399.8
9633.98
6612.83
5800.77
10422.1
9357.42
6477.97
5818.76
13643.2
17353.2
13437.3
9129.71
6202.37
15749.2
13788.2
14062
8825.97
5820.83
17622.1
14309.4
11566.7
8827.01
5504.82
8580.34
7715.43
5241.71
4882.14
8675.95
7715.28
5260.13
4890.51
8272.35
7231.16
5191.53
4648.29
14773.3
12686.1
12275
10459.6
11344.5
10138.9
8010.39
7150.92
5143.67
4467.81
15035.2
12378.2
12229.8
9634.4
9844.95
7840.71
7504.44
6083.44
4852.45
4227.08
12192.7
8760.94
12549.4
8681.75
15360.2
11686.9
16133.7
12258.8
9733.67
6712.01
9529.26
6912.77
12893.2
8735.93
13000.3
8798.54
16585.9
12948.8
16711.4
13121.8
10036
6627.5
10090.9
6688.51
7106.1
4966.86
4738.46
4069.88
7089.33
5157.41
4771.65
4124
7363.51
4952.22
4769.61
4149.47
7516.44
4908.23
4924.05
4135.64
7614.55
7172.12
8233.19
7024.81
7594.71
7121.76
7943.13
6720.41
6891.95
6577.86
7368.53
6206.34
11017
9747.26
8910.58
7881.19
8907.98
8229.27
6716.25
6010.45
6768.31
5484.8
10082.3
8566.82
7633.69
6609.68
6456
5835.79
5648.83
4928.24
6317.25
4686.52
3880.4
1801.24
806.554
337.99
4076.99
1880.25
834.846
346.655
3835.22
1777.57
796.46
333.564
4078.04
1880.89
844.408
353.694
3752.92
1728.61
806.671
345.647
4097.8
1863.75
873.838
375.313
4304.65
1902.12
829.572
342.912
4344.09
1900.69
800.674
326.764
3697.93
1713.97
809.85
348.213
3037.38
1479.23
724.021
317.289
3443.82
1627.33
791.704
350.061
2942.25
1457.1
718.812
317.342
3883.65
1773.32
806.527
338.489
3094.94
1494.28
718.545
312.839
3973.94
1797.68
798.264
333.619
3102.46
1498.52
714.66
312.157
3517.16
1667.79
769.882
330.066
3029.59
1494.15
720.009
313.854
3448.29
1640.24
761.923
327.237
2993.01
1480.97
714.22
312.137
3365.49
1598.61
761.846
330.887
2990.78
1469.16
711.681
310.902
3134.23
1512.62
738.709
332.266
2921.47
1441.78
715.748
311.165
2829.31
1428.03
709.863
318.255
2473.21
1338.71
600.564
157.956
1793.7
1248.27
566.582
156.227
2489.11
1341.48
605.411
163.708
1832.94
1251.2
568.259
157.406
2531.68
1341.5
601.8
159.299
1897.69
1251.46
563.304
155.015
2514.94
1334.02
613.435
167.556
1885.72
1243.92
563.503
156.569
2420.4
1313.78
628.538
184.381
1709.21
1218.43
559.611
156.945
2277.55
1272.86
598.435
169.636
1421.24
1161.47
551.48
155.735
2318.82
1287.27
609.134
173.885
1466.98
1183.2
553.059
155.447
2257
1261.97
579.424
156.06
1388.23
1149.36
542.058
151.416
2270.33
1257.44
573.205
153.211
1418.28
1144.02
537.307
149.548
146.355
66.1399
27.9318
10.7749
2.75709
145.671
65.9155
27.878
10.7615
2.75426
146.206
66.1943
27.9114
10.7586
2.75212
146.837
65.9602
27.828
10.7333
2.74632
149.123
66.3629
27.877
10.7341
2.745
149.53
65.8772
27.7342
10.6918
2.73534
144.772
65.2278
27.5279
10.6184
2.71712
141.397
64.1923
27.1618
10.4898
2.68574
149.113
66.0781
27.74
10.6801
2.73117
151.654
66.3796
27.7509
10.6685
2.72694
152.454
66.5545
27.8659
10.7195
2.74047
154.468
66.7889
27.8623
10.7052
2.73583
145.461
65.3935
27.5337
10.6097
2.71396
150.255
65.8044
27.5566
10.6022
2.71087
143.956
64.5268
27.1978
10.49
2.68471
149.403
65.1102
27.2654
10.4971
2.68516
149.378
66.5844
28.0047
10.7895
2.75986
154.635
67.0481
28.0605
10.7989
2.76154
149.74
66.6582
28.0001
10.7803
2.75676
154.868
67.0956
28.0585
10.7928
2.75937
151.718
66.8468
27.9816
10.7615
2.75101
155.961
67.2121
28.0425
10.7773
2.75458
154.417
67.0438
27.9571
10.7411
2.74499
157.459
67.2253
27.9958
10.7531
2.74786
156.912
67.0252
27.9245
10.7261
2.74094
20069.1
27090.6
20047.9
26942.2
19985.8
26607.3
19259.1
25864.8
17526.7
24089.4
15405
17514.4
15777.6
18781.6
15269.7
17069.5
15410.9
17080.8
16656.8
2885.3
641.16
152.366
28.6593
17890.6
5305.69
1346.31
323.593
60.878
16489.5
2823.25
625.768
148.635
27.9412
17703.9
5214.58
1323.38
317.585
59.4131
16080.2
2743.62
607.859
144.598
27.2302
17297.2
5083.18
1291.28
310.338
58.1819
15344.8
2590.41
573.792
137.077
25.9195
16579.3
4865.94
1239.63
299.12
56.2622
14153.9
2342.67
521.181
125.658
23.9274
15389.3
4539.12
1164.93
283.209
53.5583
12196.4
2112.99
489.331
120.971
23.3717
12417.3
3842.25
1018.27
253.868
48.8592
12836.9
2178.84
496.469
121.452
23.3166
13382.2
4114.04
1076.1
264.902
50.5099
11889.8
2085.92
486.922
121.055
23.4653
11996.7
3704.06
986.478
247.757
47.983
11764.8
2058.95
481.26
119.933
23.2626
11892.7
3656.95
974.137
245.811
47.6375
38268.9
57761.6
55763.9
35845.3
26513.2
33268.4
25327.3
33070.7
31461.4
53753.9
33883.9
55375.3
3.6963
5.45438
9.71246
18.1968
34.361
64.5169
5.12392
7.39916
12.8121
23.2844
42.2731
75.4195
2.7708
2.3512
4.31025
3.86908
8.14687
7.77113
16.0449
16.1756
31.1778
32.2853
57.8527
57.2848
120.116
218.834
389.267
673.789
1048.83
1328.85
131.15
220.01
352.835
531.053
722.413
851.364
9.58944
13.3284
15.7913
17.1608
17.7387
14.1047
19.4947
22.9564
24.8174
25.5756
25.0085
34.3115
40.0834
43.0397
44.1816
46.6212
63.4206
73.4186
78.2337
79.9601
87.4819
117.749
134.808
142.345
144.744
162.881
216.189
244.015
254.749
257.448
13.2554
18.3343
21.608
23.377
24.1018
19.0711
26.2122
30.6833
33.0045
33.9152
32.8623
44.793
51.9694
55.4847
56.7728
59.3934
80.2012
92.1382
97.5718
99.3797
107.127
143.081
162.533
170.554
172.844
189.599
249.901
280.125
290.901
293.173
7.20513
10.055
11.9658
13.0531
13.5223
6.12258
8.56508
10.2199
11.1739
11.5908
11.1724
15.5054
18.3405
19.9026
20.5554
10.0419
13.9678
16.562
18.0099
18.6226
21.0303
28.9796
34.0137
36.6663
37.7231
20.0857
27.7376
32.6306
35.2425
36.2972
41.2214
56.3396
65.5458
70.13
71.8405
41.6054
56.9748
66.4161
71.1736
72.9723
79.6246
107.73
123.991
131.472
133.99
82.5498
111.896
129.013
136.973
139.687
146.63
195.859
222.435
233.301
236.335
145.518
195.062
222.249
233.635
236.928
299.719
390.305
432.403
445.055
446.501
537.374
682.262
738.29
747.318
744.034
935.06
1147.75
1206.27
1198.29
1185.02
1568.94
1839.71
1865.34
1816.31
1790.71
2349.56
2607.64
2545.7
2436.66
2412.12
2910.79
3127.71
2988.12
2833.9
2816.1
326.429
423.326
467.104
479.354
480.211
540.875
687.76
745.1
754.739
751.554
854.354
1061.07
1125.86
1124.9
1114.14
1263
1526.69
1584.11
1561.82
1541.15
1686.88
1985.15
2018.2
1968.52
1940.08
1966.09
2276.99
2287.96
2218.95
2186.95
3.71572
5.52505
9.87818
18.5537
35.0929
65.9235
5.14836
7.48412
12.995
23.6341
42.8839
76.3726
2.78733
2.3667
4.37414
3.93258
8.31223
7.95138
16.4468
16.6691
32.1134
33.5123
60.0406
60.7302
122.325
221.193
390.341
671.084
1043.22
1325.89
132.372
221.103
353.123
529.933
720.469
850.383
9.6429
13.4104
15.8987
17.2877
17.8761
14.2993
19.793
23.3474
25.2789
26.0753
25.4652
35.0119
41.0014
44.123
45.3543
47.6061
64.9344
75.4051
80.5789
82.499
89.5108
120.884
138.94
147.233
150.041
166.813
222.334
252.178
264.454
267.988
13.3232
18.4394
21.7472
23.5426
24.2817
19.3072
26.5791
31.1701
33.584
34.5455
33.3726
45.59
53.0311
56.7519
58.1527
60.3754
81.7485
94.2135
100.06
102.095
108.862
145.858
166.303
175.11
177.834
192.366
254.453
286.434
298.622
301.681
7.25037
10.1238
12.0553
13.158
13.6356
6.16487
8.62903
10.3026
11.2707
11.6952
11.3471
15.7704
18.6845
20.3058
20.9904
10.2148
14.2285
16.8985
18.4025
19.0452
21.482
29.6632
34.8989
37.7015
38.8385
20.5754
28.4728
33.5755
36.3412
37.4774
42.318
57.9961
67.6855
72.6267
74.527
42.9424
58.9723
68.9698
74.1299
76.1401
82.1808
111.596
128.984
137.295
140.252
85.8771
116.872
135.373
144.332
147.568
152.595
204.843
233.98
246.699
250.705
154.735
208.545
239.109
252.81
257.278
306.071
400.589
446.432
462.016
465.073
544.796
695.554
757.684
771.718
771.258
940.425
1160.87
1228.45
1228.31
1219.63
1566.4
1845.42
1882.29
1843.64
1824.51
2340.26
2604.75
2552.5
2452.91
2434.73
2905.51
3124.85
2989.12
2838.77
2823.67
330.153
429.809
476.448
491.06
493.254
544.687
695.314
756.853
770.093
768.986
856.665
1067.8
1138.07
1142.02
1134.17
1262.21
1530.2
1593.62
1576.95
1559.72
1683.89
1985.3
2023.17
1978.18
1952.71
1964.43
2276.46
2289.3
2222.13
2191.32
4034.76
2339.86
195.216
105.958
121.547
93.9183
150.035
3344.59
2851.74
1583.03
2004.72
624.267
1028.66
430.902
522.534
368.272
3191.35
1286.77
546.781
455.898
734.127
587.456
376.826
307.437
238.222
187.433
350.749
298.135
3624.01
1835.84
2189.02
1102.34
769.291
1347.84
376.484
210.377
445.647
7535.21
6358.15
5314.84
4817.66
6614.95
4734.94
4544.99
4065.79
3758.82
3863.64
483.301
622.157
682.998
699.514
700.918
266.677
352.306
396.114
412.608
416.664
306.81
407.114
459.43
479.638
484.763
237.744
316.977
359.47
376.773
381.627
375.887
492.853
549.98
569.527
573.339
6673.56
6201.02
5371.8
4872.92
6521.29
5812.2
5498.8
4849.18
4447.68
4636.05
3425.66
3630.53
3447.66
3249.86
3233.58
4319.83
4360.33
3948.26
3655.43
3552.41
1469.67
1754.36
1807.53
1774.91
1747.39
2322.2
2610.38
2575.55
2468.31
2414.48
1041.18
1290.7
1369.45
1368.42
1354.64
1250.94
1528.73
1601.83
1586.8
1564.47
898.737
1130.51
1213.76
1221.74
1212.61
6353.2
5894.28
5112.58
4665.94
6326.27
2837.68
3088.98
2987.15
2849.82
2852.75
1298.78
1570.33
1634.2
1616.36
1598.86
1091.52
1335.66
1404.21
1398.66
1387.85
1699.45
1981.38
2008.85
1962.28
1946.58
1385.27
1656.73
1709.78
1685.68
1670.42
908.486
1123.03
1190.46
1192.19
1185.1
751.767
948.941
1023.08
1034.65
1030.96
591.516
764.396
840.965
861.36
862.181
467.966
610.148
677.093
698.098
701.146
855.268
1075.09
1154.7
1164
1157.55
730.833
926.217
1002.17
1015.7
1012.76
6935.27
6077.73
5155.3
4689.88
6425.47
3830.98
3851.04
3547.04
3325.22
3388.2
4692.95
4737.61
4272.72
3980.63
4329.2
2464.73
2732.83
2672.25
2566.12
2557.13
1778.74
2067.38
2088.14
2036.15
2018.69
2961.32
3207.06
3088.78
2943.52
2955.17
909.518
1127.63
1198.06
1201.19
1194.19
521.443
672.298
738.764
756.812
758.154
1067.6
1307.2
1374.78
1369.96
1359.82
1902.41
1938.37
1982.93
1934.42
1628.39
693.659
22613
22760.3
24573.4
25793.5
21232.6
21823.3
22813.2
21315.4
19515.7
27862
19886.4
28028.2
22742.2
19971.4
35069.8
21065.7
21018.4
22493.7
23362.1
19315.6
19925
21184.9
20075.6
19070.2
33626.3
19295
32578.5
22681.9
25242.1
37432.1
19050.8
18836.7
19668.4
20177.9
17508.3
18731.8
18856
18449.3
21402.1
28192.6
22053.6
27707.7
24225.6
27845.7
32106.1
16931
16747.9
16685.7
16961.7
15940
17402.6
16116.1
16091.6
18845.6
23218.5
19421.2
22058
20669.3
23205.4
25621.6
14887.6
14747.4
14393.4
14549.6
14631.8
16152.5
14011.4
14184.7
16775.3
17464.2
17351.7
16155.7
17540.8
17335.4
19025
13789.8
13717.1
12767.2
12872.2
13472.7
14460
12568.9
12644.5
15143.9
13641.9
15407.7
12858.5
15173.5
13466.3
15730.7
22172.5
20915.8
24473.8
26235.7
19635.4
19047.6
22048.9
20350.4
18102.1
11799.1
17883.2
11856
15447.3
13678.5
15406.3
20108.2
19179.7
21741.5
22946.4
18318.5
17979.3
20056.1
18634.7
15743.4
10426.1
15579.8
10524.3
13127.2
11221.2
12995.9
17203.4
16624.6
18254.3
18902.9
16063.3
15738.9
17318.3
16356.3
13549.2
9126.38
13160.1
8942.78
11287.3
9011.46
11478.8
13964
13613.7
15035.8
15384
13195
12807.6
14597.8
13805.8
11028.7
7957.08
10781.9
7832.24
9369.36
7962.19
10060.5
11733.4
11493.3
12828.6
13043.7
11010.6
10648.6
12608.2
12010.6
9389.4
7588.47
9204.33
7526.84
8283.71
7586.2
9217.45
10097.1
9897.46
11346.2
11506.8
9592.2
9523.22
11130.5
10778.6
8394.85
7315.29
8303.14
7318.81
7614.42
7452.52
8875.68
14123.9
8015.28
22813.3
15172.6
25055.1
18699.3
38302.6
48844.5
50820.4
63583.4
33373.8
29336.1
21127.3
17065.6
10459.7
6992.69
22775.4
22242.7
20049.2
22927.1
30536
26022.6
36476.4
28150
9656.87
6773.94
5447.94
4185.82
11358.6
9317.16
7132.28
6070.97
22864.1
22786.2
22186.6
17247.5
16453.1
13673.1
13249
15360.9
21148.7
21358.5
46497.1
48473.9
31406.1
32803.1
19986.6
16835.7
20541.6
14325.8
9627.22
10176.7
8668.28
13998.3
4544.57
6035
11942.7
18651.5
7314.93
9174.32
12649.9
24689.2
8989.05
16216
3303.1
9507.3
2765.12
7067.8
19053.4
23780.4
20573
24214.3
22630.2
22374.9
23975.8
22595.9
18414.2
25508.4
18141
24762.8
20669.5
24367.5
20882.7
24474.7
24740.8
22611.9
24931.8
22535
17281.5
25868.3
16844.2
26107.4
23611.7
30135.3
29809.2
45542.4
25032.6
35592.6
29497.9
50370
22416.2
26192.4
29963.7
43425.6
22271.4
24408.3
30381.1
43064.8
8736.89
11956.6
22793.4
41985.6
10573.3
12396.2
28779.9
46545.2
12461.5
12659.4
35143.2
49455
27032.3
26228.5
25465.1
27114.2
44721
25786.3
26543.2
25601.9
24048.8
52462.6
23748.6
25255.1
24749.8
28093.5
58261.1
3026.73
3690.44
6743.29
17463.2
4242.93
4937.3
8991.17
18677.4
5930.69
4979.61
11556.5
19940.5
24044.3
21345.5
23431.6
20489.3
22720.2
18263.6
18392.4
14922.9
14428.7
21994.8
22518
19781.3
24473.2
22058.3
23325.7
20189.2
21363.1
18142.6
15034.9
21330.9
25043
27316.6
25172.8
28359.3
22656.6
22445.7
22387.6
23113.3
24700.4
24637.4
24500.4
23814.8
25044.6
28629.2
25048.3
28752.8
21868.8
23656.6
21791
23731.3
24736.3
24531.2
24817
24589
22437.8
21101.7
14972
17468.8
22446.8
20727.3
14833.5
17951.9
22618.1
20909.6
15268.8
17364.2
22691.6
20659.7
15736.4
17306.3
2124.01
1132.61
635.899
1099.09
534.577
447.736
3082.12
1335.81
804.029
2029.09
1296.4
879.318
3102.22
1775.14
1435.47
3393.52
2165.52
1633.02
17140.9
12232.7
9347.59
16871.3
12486.5
9754.81
12937.6
9496.21
7604.55
10003.6
6572.76
5022.95
5264.4
2849.42
1953.82
16226.7
11771.5
8869.44
18076
12834.3
9568.01
14674.4
9540.94
6871
10466.7
6151.36
4352.47
5516.47
2751.1
1738.09
29143.7
27400
32744.4
28190.1
34171.9
28409.9
42777.4
30898.2
20957.3
19989.9
20951.2
18428.1
23951.6
21154.4
23980.2
19292.3
23627
22769.9
21698.3
22489.3
26934.4
24988
30402.3
31284.7
34417.9
36098.4
24343.6
25698.2
21889.5
21491.2
25437.9
26367.9
14694.8
7393.52
13974.2
8230.2
15072.8
7433.48
14061.7
8135.91
15097.9
7439.55
14316.4
8524.2
14109.8
8939.56
14375
8783.74
20778.1
16698.3
21315.9
17023
23869.6
20667.2
24922.2
20897.5
20031.9
13267.2
20290.4
12829.4
22262.3
17131.6
22748.8
16962.8
26157.8
20988.9
26428
20796.5
20207.1
13426
20281.6
13324.6
12092.8
7319.82
9737.59
5948.95
10920.1
6439.41
9181.59
5509.45
12576.7
7819.8
9959.56
6133.76
12634.7
8061.05
9899.4
6135.27
2107.81
1006.81
3742.63
2022.41
2217.9
1204.16
3951.9
2358.94
2676.15
1784.29
4332.58
2999.69
11006
18498.3
7605.69
7086.18
4915.93
17493.1
11163.6
5979.81
5938.03
3926.81
19051.6
14018.2
10457.7
7644.04
4720.17
468.514
245.271
1180.48
815.549
629.333
313.121
1530.68
1088.43
1075.2
601.555
2112.26
1532.81
16769.7
14418.8
10270.3
8504.71
6003.91
5055.9
4829.97
3533.31
3139.89
2269.65
16328
13228.2
11592.4
8732.87
8284.25
6059.72
5869.73
4208.38
3900.61
3115.88
12531.1
8591.07
12944.5
8772.87
16390.3
12242.9
16775.5
12640.2
9870.3
6607.9
9340.84
6338.68
13143.2
8837.94
13081.3
8837.1
16913.1
13166.4
16809.9
13188.8
10179
6646.69
10143.5
6705.25
7047.68
4762.86
4619.94
3870.61
6647.26
4478.55
4389.16
3562.1
7401.92
4916.72
4747.03
4083.66
7537.01
4906.77
4922.41
4122.2
411.793
304.145
218.547
1865.98
804.102
561.655
410.344
351.141
270.841
2127.63
999.224
726.781
645.679
605.56
531.12
2524.51
1326.93
1006.45
11136.1
8180.94
6480.67
6508.3
4872.46
3980.76
4018.62
3033.21
2538.02
2838.93
2110.3
1723.87
3114
1746.61
1323.17
9975.49
7032.71
5326.12
6246.01
4326.8
3321.44
4314.92
2942.06
2270.14
3394.32
2252.45
1686.93
4035.74
2030.56
1470.59
3380.48
1528.09
687.593
290.812
3829.8
1679.26
734.634
304.393
3390.72
1527.11
688.895
291.51
3899.7
1717.26
760.222
317.367
3382.43
1512.09
710.815
307.495
3980.57
1737.64
804.121
343.85
4278.24
1833.61
787.907
323.6
4342.55
1878.87
787.053
320.27
3565.64
1611.24
753.65
322.373
2938.79
1405.29
683.411
298.117
3130.51
1453.51
708.433
314.424
2725.77
1326.44
657.482
291.259
3841.4
1720.63
774.465
323.105
3055.8
1457.06
695.447
301.08
3966.01
1781.47
787.788
328.439
3092.16
1487.05
707.095
308.204
2501.09
1281.22
621.865
274.953
1688.37
1009.23
542.263
250.94
2509.53
1277.12
623.472
276.153
1762.2
1027.76
547.657
252.994
2581.55
1283.13
638.1
284.651
1973.99
1083.59
566.772
259.522
2563.27
1256.83
633.932
291.836
2164.88
1126.74
594.09
268.5
2431.26
1227.37
625.102
285.493
1049.69
811.761
428.011
120.013
521.596
712.28
385.619
113.541
1167.76
850.377
442.492
126.67
632.935
752.633
398.024
116.911
1405.71
921.392
461.806
128.091
843.477
823.255
415.335
119.748
1723.07
1011.83
496.857
140.254
1109.14
908.822
441.783
126.77
1980.05
1101.51
540.815
160.963
1274.49
984.975
467.197
133.265
2185.56
1204.48
559.753
157.982
1341.24
1084.51
512.677
144.558
2108.15
1162.32
548.559
156.962
1265.28
1041.86
490.578
138.537
2221.53
1228.64
558.382
149.612
1362.53
1113.37
521.88
145.369
2261.79
1247.44
566.56
151.136
1413.42
1133.68
531.132
147.656
126.724
58.145
24.9081
9.71654
2.50236
127.985
58.4241
24.9956
9.74464
2.50881
128.577
59.0329
25.1909
9.80309
2.52171
131.66
59.5521
25.3515
9.85624
2.53413
133.307
60.1175
25.5081
9.90062
2.54373
136.809
60.6296
25.7043
9.97108
2.56069
136.412
61.6726
26.1354
10.1202
2.59596
138.384
62.8698
26.6374
10.3009
2.63964
137.842
61.3853
25.9375
10.0411
2.57628
141.56
62.2796
26.1829
10.1125
2.59206
137.745
60.88
25.7251
9.9663
2.55848
141.047
61.7604
25.9703
10.039
2.57466
138.299
62.2592
26.3082
10.1713
2.60728
143.947
63.1005
26.5032
10.2251
2.619
141.522
63.455
26.7731
10.3369
2.64731
147.268
64.1779
26.8977
10.3645
2.65274
126.485
57.9386
24.8256
9.68901
2.49603
127.487
57.8711
24.7765
9.67176
2.49205
128.412
58.6584
25.0492
9.75596
2.5108
129.276
58.4624
24.9575
9.72544
2.50381
132.444
59.774
25.368
9.8512
2.53198
133.075
59.5013
25.2554
9.81364
2.52329
136.943
60.8258
25.661
9.93933
2.55173
137.406
60.5866
25.5715
9.90969
2.54485
140.653
61.3661
25.8227
9.98978
2.56319
17967.5
28058.5
18431.4
28039.5
18862.7
27684.9
18732.6
26972.6
17217.3
25003.1
15136.3
17285.5
15404.4
18622.9
15108.2
16909.6
15358.5
17028.3
16520.1
2874.47
636.765
150.594
28.2329
18349.2
5355.98
1347.12
321.785
60.3145
16423.2
2835.33
626.848
148.171
27.762
18194.1
5275.64
1327.3
316.567
59.0075
16108.4
2759.16
608.948
144.138
27.0574
17794.1
5145.91
1295.62
309.481
57.8183
15424.4
2604.22
574.269
136.575
25.7557
17023.4
4919.3
1242.71
298.209
55.9197
14167.4