/*--------------------------------*- C++ -*----------------------------------*\
| =========                 |                                                 |
| \\      /  F ield         | OpenFOAM: The Open Source CFD Toolbox           |
|  \\    /   O peration     | Version:  2306                                  |
|   \\  /    A nd           | Website:  www.openfoam.com                      |
|    \\/     M anipulation  |                                                 |
\*---------------------------------------------------------------------------*/
FoamFile
{
    version     2.0;
    format      ascii;
    arch        "LSB;label=32;scalar=64";
    class       volScalarField;
    location    "0.6";
    object      gradTz;
}
// * * * * * * * * * * * * * * * * * * * * * * * * * * * * * * * * * * * * * //

dimensions      [0 -1 0 1 0 0 0];

internalField   nonuniform List<scalar> 
5712
(
9763.56
31875
7854.23
32602.1
5750.72
33227.4
8762.32
49586
10711.7
67724.3
10829.8
50318.3
10638.9
42317.2
11082.3
38127.1
6655.14
4293.08
17958.5
10807.2
6343.55
3410.65
18915.9
9289.97
7670.56
5919.18
24435.5
18132.4
5803.73
4539.35
23971.9
18320.6
13703.7
5896.81
11942.9
5459.11
5811.67
13197.3
44522
11766.9
15994.6
4912.58
55628.7
14661.8
14331.4
4338.98
32816.4
9995.53
16805.9
5562.34
29420.9
9213.58
10742.9
5325.13
13722.3
5530.83
11656.5
6253.53
13280.8
5300.82
14112.6
8192.37
11376.2
5174.55
15962
5931.76
5367.49
1932
17627.3
12464.4
10425
7611.09
17519.1
14245.5
9314.03
7768.32
10749.9
7560.79
16194.3
11350.9
6493.28
4690.31
2805.43
2263.57
5644.16
4688.96
2362.72
2308.24
6791.28
4548.52
3075.25
1937.06
10238.8
5807.63
8101.01
9756.64
14749
10756.1
12324.5
17068.5
6430.08
3205.57
4540.61
5429.87
2893.93
1283.46
1714.9
1894.83
15354.9
27038.2
10180.4
30020
17525.2
26153.4
12312.9
30971.5
19255.8
23161.1
15408.1
29500.5
18173
18834
16080
16203.9
17499.6
18688.1
20190
22508.1
24727.8
35361.7
15364
13968.4
13697.4
15986.2
24363
31515.8
28150.4
36332.5
35058.2
28751.8
26582.2
35547.7
34025.3
24560.3
23966.3
32864.7
32375.7
13801.4
11049.1
15527.6
14019.3
18523.2
17540.6
21399.3
21283.3
29448.4
30721.2
12691
11521.5
14226.7
15024.2
16282.4
18718.5
19326.4
22977.9
25407.6
30519.8
11297.5
8703.31
7271.56
8619.15
13241.9
14822.3
8718.47
12925.3
6978.77
8408.37
11002.7
8983.79
1864.25
5433.66
495.848
1622.77
4148.54
8295.16
1088.29
2525.25
1361.09
5124.19
285.925
1512.33
7410.29
7125.99
8803.91
5610.37
12201.1
9809.03
14737.8
10419.1
2159.71
3768.03
4339.47
2542.33
1948.3
2412.69
2812.64
2058.85
22592.2
13742.5
4414.4
25408.8
14650.8
4800.01
21649.4
13547.2
4641.07
24766.2
14577.8
4778.29
19691.6
12366.2
4084.49
23805.7
14430.1
4797.53
7903.23
4805.6
1494.9
11669.3
7751.91
2624.57
15184.5
10255.4
3499.99
18499.9
12006.5
3985.55
23288.9
14577.3
4995.2
8887.71
5516.83
1942.78
11807.9
8534.2
3241.15
15115.1
10962.5
4059.91
18952.4
13190
4741.46
23619.1
14913
5302.12
239.768
2015.25
2767.95
4086.58
2621.85
2836.45
6412.94
5922.86
560.415
831.11
597.12
862.854
365.666
1150.55
718.363
1527.58
2681.43
1359.94
3627.25
2171.06
1782.95
2966.53
3225.52
-65.141
6943.27
930.055
-3035.28
-746.172
1053.44
163.972
201.545
-358.537
7893.74
3024
2095.08
1106.27
8052.61
3103.62
2640.84
1367.31
8042.54
3286.12
3630.71
2061.48
2282.78
1308.08
283.569
372.922
12941.8
11011.3
5800.43
5747.18
15504.1
14036.6
7407.15
7114.03
4496.26
4425.04
9989.31
7828.46
3046.33
3176.18
1125.65
1569.87
4183.78
4034.6
1718.84
1994.77
2189.4
2463.68
665.029
1289.17
3468.14
1864.85
3262.29
1730.33
5842.77
2603.38
5142.17
2530.48
1671.89
1147.87
1860.95
982.418
414.091
426.983
964.075
427.94
8861.78
5032.55
3678.71
3090.27
8937.94
5359.43
3670.38
3092.27
9626.23
6048.98
3729.47
3103.35
14175.2
17098.3
11503.1
6682.26
2848.34
15935.4
13009
10596.4
7533.02
3571.15
14854.8
11916.6
8395.5
5506.18
2528.43
3277.78
2244.81
2540.7
2214.74
3685.89
2451.74
2686.9
2315.87
4421.95
2961.46
2926.13
2515.45
11778.4
8289.33
9511.78
6314.42
6436.91
4702.07
5012.27
3681.6
2879.82
2688.83
9855.27
8414.41
7617.99
6281.91
5573.93
4603.14
3985.76
3421.4
2191.59
2529.83
6781.55
4518.53
4303.84
2688.99
9965.3
7447.25
6602.7
5315.12
3014.1
1816.47
4575.62
3173.88
3952.21
1871.06
1056.24
543.278
4707.15
3404.88
1205.96
1011.28
2983.49
1277.89
856.192
383.158
1943.44
1560.83
1157.04
1486.74
2873.98
2318.04
1526.48
1889.45
1953.01
1064.02
825.222
1001.35
364.662
129.526
-208.797
26.5298
1355.1
564.07
161.611
1327.98
377.129
100.508
1533.17
673.918
202.495
1415.97
424.271
117.773
1785.12
832.702
232.135
1551.9
488.027
125.883
5378.11
3028.91
871.548
3834.37
2006.48
578.792
2903.51
1455.8
431.752
2198.72
1036.21
274.922
1687.09
530.769
115.278
6260.04
3416.47
1083.05
4519.93
2301.06
698.796
3290.63
1628.65
489.918
2398.64
1081.82
301.728
1843.3
521.566
136.305
956.066
283.23
69.4395
3.10007
394.758
119.969
32.2792
4.7881
988.102
297.086
78.5958
10.483
469.633
147.183
55.4229
19.9672
1024.82
312.243
98.7279
26.0503
708.212
233.142
56.0298
8.59366
401.263
150.601
9.43836
-14.5122
213.212
102.365
27.768
7.97186
734.935
241.211
51.4085
-11.8148
574.703
182.87
60.6519
-3.15818
950.687
292.712
85.6374
10.2102
793.395
239.841
80.7155
-5.52516
484.541
172.578
40.1132
-3.9398
370.428
126.52
46.8936
5.39552
229.53
95.9201
31.9979
11.3469
170.169
68.4781
30.3459
11.1481
1170.57
344.392
86.6096
-2.69671
1062.94
310.89
107.725
-1.8834
1155.99
340.776
86.7387
-3.05581
1031.73
300.07
106.502
-2.69934
1116.08
329.353
100.913
8.55419
972.569
280.076
112.082
4.43187
942.08
283.572
106.343
30.1353
1055.96
301.898
138.935
8.46049
794.367
236.516
94.8272
12.1585
756.176
209.95
85.2629
6.45892
282.379
74.4873
25.0143
5.99557
797.856
221.684
88.1929
7.00407
301.743
79.8843
27.7129
7.53545
838.938
232.936
95.1829
9.37471
320.498
85.3083
30.1854
8.99631
771.464
214.971
98.755
11.9675
321.858
86.1247
35.0852
11.2555
701.459
200.872
93.5962
14.7799
293.001
84.2616
39.5005
13.3717
420.273
123.734
43.9722
5.51776
232.309
77.2453
29.8578
11.0271
536.046
151.583
62.9406
8.98808
264.697
82.4573
35.7973
12.8321
284.379
90.2192
31.0415
5.08398
164.752
59.7047
21.4737
8.7228
134.773
51.5656
22.1289
8.10054
87.5985
38.0234
15.9308
7.5069
1.52279
0.529884
0.177826
0.0592352
0.0238657
0.896173
0.284022
0.0938226
0.0312738
0.0126406
2.73878
0.916455
0.309744
0.104643
0.0427097
2.3198
0.739603
0.250023
0.0849639
0.0348804
3.632
1.2899
0.451666
0.155666
0.0643893
5.29432
2.04007
0.724406
0.251485
0.104655
4.66422
2.01473
0.747313
0.2663
0.112932
5.73381
2.30562
0.851728
0.306569
0.131737
3.26576
1.51322
0.565161
0.200451
0.0844004
3.14047
1.36638
0.506476
0.179797
0.0758807
3.38992
1.37379
0.493328
0.171572
0.0713382
4.14185
1.59573
0.556796
0.191438
0.0792304
3.26823
1.56118
0.598935
0.216667
0.0926344
3.54711
1.45713
0.542753
0.195105
0.0833488
4.54898
1.81365
0.67286
0.243353
0.104987
3.83123
1.48364
0.548781
0.1989
0.0860158
0.906794
0.40783
0.141269
0.047011
0.0188425
0.261381
0.15582
0.0551888
0.0183443
0.00732764
1.6775
0.668452
0.227658
0.0761403
0.0307837
0.549282
0.255489
0.0876882
0.0291535
0.0117204
2.351
0.881079
0.303778
0.103254
0.0422959
1.69508
0.581863
0.19148
0.0635829
0.0257134
4.21486
1.47418
0.49982
0.169169
0.0692987
2.9336
0.981261
0.323233
0.107772
0.0437572
5.509
1.84812
0.615572
0.206923
0.0845228
3220.88
7419.74
3374.6
7399.32
3804.27
7370.21
4402.1
7527.22
4388.72
7513.4
1738.44
2596.16
2858.99
4436.92
888.588
1257.77
208.323
337.02
17326
4319.99
1065.48
275.907
92.9607
4790.34
1344.2
380.126
99.1249
29.9673
16966.1
4208.04
1039.59
268.032
91.159
4885.76
1489.26
391.887
104.1
34.2491
15927.2
3943.1
975.185
252.306
86.2821
4733.42
1434.02
376.526
99.6903
32.948
14273.5
3526.51
875.14
227.751
78.4444
4540.72
1350.13
350.99
92.3928
30.456
11691.5
2894.62
723.885
190.167
66.1676
4199.49
1222.79
316.063
83.1091
27.4604
5372.52
1404.34
361.237
96.8852
34.2936
2010.43
595.677
153.323
39.8867
13.2694
8105.56
2079.71
528.123
140.106
49.1759
2982.31
872.364
226.248
59.7234
19.9688
3123.38
825.634
214.168
57.9702
20.6605
1113.8
342.286
87.672
22.8005
7.66406
1055.48
278.748
72.6997
19.8114
7.09731
401.192
114.523
27.5444
8.70944
2.37213
-1320.92
-463.303
5204.48
-1626.95
829.061
887.796
2540.75
3290.96
2090.63
3999.62
3580.34
5543.88
4548.77
5628.35
2298.27
3075.35
2341.59
2783.72
1213.46
1261.57
1902.91
1133.76
530.173
63.0465
-46.4878
-53.0029
198.073
13886.4
4828.52
4939.83
3876.69
808.919
730.466
3124.39
94.6026
314.698
186.579
12.8609
7442.18
4001.99
1954.07
1284.31
3042.22
1849.99
678.666
1127.16
-200.846
96.5148
945.742
813.061
8220.8
3439.22
5099.43
2372.91
2982.16
4609.28
1336.06
61.5692
1161.56
1136.51
772.873
557.269
410.409
247.241
793.187
559.351
379.959
234.028
90.249
448.595
352.659
249.444
147.883
49.0702
54.7355
44.1823
31.9656
19.2198
6.39804
-41.1941
-33.8267
-24.6524
-14.7737
-4.89071
-46.9516
-38.5535
-28.1123
-16.8636
-5.58513
170.29
136.451
98.389
59.2175
19.8025
8923.12
6469.91
4475.99
3072.65
2006.63
3524.98
2484.47
1778.27
1133.36
473.557
3521.46
2504.21
1732.52
1071.46
432.664
2682.66
1797.91
1226.02
745.945
267.805
600.705
396.765
285.76
177.919
64.372
627.1
501.649
362.739
220.757
75.4444
2426.28
1787.96
1212.14
717.609
254.229
180.594
200.175
165.448
109.705
39.6449
270.49
219.155
161.799
100.626
34.9198
202.996
190.993
154.592
101.15
35.8364
0.0885825
-5.92903
-6.16767
-3.61057
-0.926129
4859.57
3654.4
2579.5
1804.18
1186.14
2885.42
2060.72
1437.59
887.776
347.471
1613.33
1250.16
883.356
531.375
182.705
1054.01
811.131
568.899
339.496
115.473
2395.91
1781.23
1218.31
719.743
249.307
1533.54
1188.22
836.461
499.085
167.93
561.06
434.064
305.148
181.714
61.1667
944.074
735.908
518.008
307.054
102.299
-166.68
-126.838
-85.6524
-48.1887
-15.2982
80.2145
62.6729
44.9256
27.4129
9.36608
785.951
609.064
427.722
254.101
85.3142
681.761
532.811
376.501
224.158
75.0116
4841.58
3075.15
2174.62
1523.4
964.383
2411.85
1684.37
1134.31
691.772
267.199
3430.08
2473.25
1692.97
1066.47
428.18
1752.17
1282.33
876.706
532.769
199.347
2380.69
1791.03
1237.15
734.487
251.34
3317.56
2295.25
1579.02
965.211
348.158
1110.31
859.761
602.638
356.854
119.166
49.9409
38.0557
26.7874
16.2303
5.54718
959.257
741.033
520.652
310.426
104.722
-41013.6
-65083.6
-34281.7
-52518.3
-35468.4
-70820.9
-42190.7
-90094.3
-26451.2
-18556.6
-28736.9
-18540.8
-23831
-15646.5
-28468.1
-15711.4
-35215.8
-27596.3
-49802.9
-37125.5
-30406.8
-25227.5
-41358.6
-32106.1
-23789.1
-25116
-19816.7
-19783.7
-24234.5
-21958.2
-53517.5
-14836.4
-21269.4
-8233.13
-63609.2
-17936.4
-18826.4
-7506.33
-41046.3
-12954.3
-21901.9
-8615.95
-37388.9
-11522.9
-19422.8
-7991.1
-23874.9
-8799.15
-18585
-8378.39
-20689.5
-7657.22
-19126.8
-9668.88
-16530.5
-6767.57
-20477.4
-7404.84
-7166.17
-2573.02
-15531.6
-11166.2
-13367
-8675.67
-13103.6
-10858.1
-11388.9
-8272.8
-14024.9
-8748.54
-16727.5
-11516.9
-9261.07
-5922.05
-5144.39
-3481.27
-7911.05
-5618.61
-4411.83
-3335.16
-9602.75
-5756.36
-5351.52
-3085.81
-12742.1
-6678.15
-9014.03
-10160.4
-16495
-11431.7
-12901.8
-17344.4
-8549.6
-3944.12
-5437.46
-5810.68
-4590.13
-1897.72
-2555.52
-2240.96
-20075.4
-25420.6
-11653.7
-29469.9
-20853.4
-24201.8
-13429.9
-30071.6
-20967.3
-21749.9
-16002.7
-28431.3
-13375.8
-10526.5
-15477.5
-17678
-18039.4
-14001.1
-17133.5
-20962.7
-23746.3
-34237.2
-10116
-11354
-12956.5
-15876.7
-24116.4
-24683.4
-17340.4
-31824.4
-24746.3
-22850
-16989.3
-31357.5
-24687.3
-20089.9
-15989.8
-29269.8
-24511.4
-11351.1
-9055.81
-13070.5
-10758.8
-15275.7
-12910.3
-17659.3
-15504.1
-26548.6
-24647.4
-10234.4
-9217.49
-11720.7
-11357.8
-13870.8
-14262.8
-17174.5
-18163.1
-23791.7
-25454.4
-9889.63
-7747.66
-7195.49
-8371.24
-10810.1
-13119.6
-8107.28
-12033.1
-7225.95
-8447.29
-10398.1
-8388
-2322.62
-5604.96
-1120.7
-1983.37
-4328.72
-8144.27
-1535.25
-2679.38
-1912.46
-5429.83
-949.345
-1930.51
-7720.94
-7221.92
-9033.81
-5637.03
-11998.3
-9343.88
-14660.7
-9876.41
-2631.29
-4057.17
-4648.89
-2731.43
-2499.53
-2786.01
-3164.61
-2319.59
-10655.8
-3659.21
-14578.4
-4935.05
-10882.6
-3839.43
-14918.6
-5305.55
-10797.1
-3768.62
-15629.6
-5895.94
-5629.47
-1775.3
-7552.81
-2786.15
-9176.55
-3464.62
-11477
-4235.73
-16566.6
-6444.83
-6570.57
-2249.17
-7825.45
-3462.19
-9995
-4310.6
-13171.2
-5425.99
-17533.4
-6561.33
-9074.85
-8309.02
-7388.64
-7014.76
-15176.9
-11640.6
-12682.6
-10460.7
-5672.63
-4226.56
-2403.45
-1565.89
-5559.17
-4642.6
-2452.58
-2191.63
-4776.44
-6370.98
-5307.59
-6723.89
-4991.13
-3921.47
-5507.79
-2153.55
-10198
-3692.33
1112.35
-1363.75
-2600.13
-1889.66
-1262.67
-1108.16
-2524.9
-1294.61
-1018.71
-470.822
-2823.02
-1425.9
-1599.57
-661.806
-3353.91
-1732.29
-2700.55
-1216.07
-2343.88
-885.001
-865.47
-158.487
-6997.96
-6998.44
-5786.5
-5027.28
-9849.85
-9536.57
-8412.76
-6895.04
-3778.68
-3535.02
-4921.43
-4952.38
-3982.68
-3250.22
-2285.2
-1923.1
-5781.83
-4511.83
-3347.59
-2691.67
-2544.9
-2262.79
-1356.2
-1356.72
-2318.56
-1165.95
-2472.47
-1260.35
-2954.66
-1530.12
-3421.68
-1787.69
-1472.07
-769.377
-1553.27
-703.746
-594.267
-213.519
-862.637
-244.192
-3214.47
-3381.6
-1878.29
-2184.31
-3330.73
-3580
-1926.82
-2191.31
-3746.55
-3672.43
-2061.21
-2141.75
-4790.11
-7505.29
-3673.16
-2507.97
-1456.38
-10501.1
-7204.06
-5629.38
-4281.8
-2512.5
-8394.83
-6395.46
-4624.79
-3336.51
-1669.4
-3262.64
-2686.68
-2614.93
-3422.35
-3376.77
-2690.05
-2590.23
-3353.2
-3581.36
-2982.11
-2515.62
-3245.38
-9443.74
-7190.81
-7549.68
-5596.34
-5538.06
-4165.59
-4191.27
-3347.17
-2440.86
-3047
-7523.12
-6893.47
-5608.86
-5187.72
-4080.26
-3785.9
-3016.6
-2940.68
-1617.1
-2522.47
-4628.24
-3323.11
-3408.63
-1886.72
-7286.14
-6012.42
-5673.2
-4395.17
-2274.59
-1169.05
-3092.3
-2270.03
-3690.88
-1566.82
-1100.76
-455.021
-4599.69
-3131.12
-1436.14
-1003.89
-2677.03
-999.485
-777.233
-263.636
-1435.9
-1138.77
-887.891
-1296.53
-1996.11
-1744.87
-1135.79
-1681.91
-1679.21
-854.211
-636.932
-876.818
-222.533
-10.3784
346.793
67.3154
-1768.14
-549.163
-2181.54
-220.7
-1833.09
-636.511
-2186.68
-243.604
-1834.57
-571.102
-2055.4
-187.248
-4228.96
-1222.05
-3320.29
-979.067
-2724.59
-893.595
-1999.1
-528.166
-1959.13
-264.719
-4942.77
-1340.82
-3676.86
-870.283
-2769.39
-663.031
-2111.25
-412.438
-2022.51
-296.26
-505.589
-157.069
-30.4682
11.7492
-199.008
-62.2363
-15.0546
0.962562
-533.84
-162.643
-35.5512
5.89217
-221.316
-65.1127
-29.9891
-11.777
-584.537
-171.964
-51.4157
-8.00789
-336.451
-87.2311
0.946914
14.6351
-110.919
-12.4211
50.9081
39.9162
63.9841
49.5995
40.3073
20.2124
-433.638
-119.785
-0.648673
34.7393
-341.408
-80.865
-16.7012
24.6111
-597.815
-168.504
-38.9384
10.2225
-484.968
-120.135
-32.4161
30.5931
-248.168
-59.6064
9.4709
25.5801
-195.884
-39.8457
-6.60038
14.1641
-29.3888
12.7377
18.7735
11.149
-26.0151
10.0138
8.22574
7.85432
-683.618
-204.254
-40.4461
23.1822
-727.646
-199.36
-74.755
22.9841
-676.398
-198.472
-38.6196
24.6203
-709.696
-191.945
-73.8412
23.7197
-660.305
-187.99
-54.4132
11.4613
-668.441
-177.831
-81.6393
15.9039
-507.683
-138.825
-56.123
-8.39651
-721.15
-185.48
-101.607
16.6732
-466.731
-114.993
-47.1126
14.2701
-592.043
-138.98
-64.124
9.02049
-240.252
-50.4585
-14.9532
-0.600691
-578.557
-135.234
-62.3919
9.67996
-237.538
-49.6649
-15.7064
-1.38433
-541.542
-125.078
-64.6799
8.14237
-219.998
-45.2399
-14.7098
-1.28505
-481.558
-111.065
-69.7467
4.481
-198.933
-40.4841
-17.8703
-2.47792
-412.667
-93.4524
-60.3518
1.98693
-146.088
-28.6308
-19.0484
-3.02922
-266.388
-53.4176
-12.9648
11.6649
-83.6233
-10.2117
-1.88926
3.15353
-348.833
-75.4399
-33.2031
7.58923
-102.09
-16.5798
-10.1311
0.0491007
-155.19
-24.1679
0.205885
12.0037
-47.3596
0.402795
5.80598
5.42425
-22.4214
10.8454
8.37167
8.49041
8.78005
16.5339
9.98053
6.11772
1.83403
0.357774
0.0846096
0.0256042
0.0108071
0.62955
0.156404
0.0421099
0.0135515
0.00584859
1.77579
0.466892
0.139499
0.0479567
0.0212143
0.741342
0.312658
0.110478
0.0404962
0.0182734
2.35951
0.699511
0.225229
0.0798447
0.0354925
3.17756
1.05054
0.373222
0.137761
0.0619148
4.4425
1.43842
0.506441
0.183914
0.081178
5.28515
1.97061
0.722275
0.263204
0.115126
3.96885
1.06441
0.346118
0.122866
0.0541798
3.42547
0.960402
0.31609
0.112456
0.0495688
3.07335
0.804269
0.257943
0.0918102
0.0408214
2.72167
0.763799
0.266103
0.0985469
0.0445551
4.48888
1.33312
0.446693
0.158551
0.0692431
3.39368
1.13367
0.395097
0.142089
0.0623489
4.29512
1.61769
0.591413
0.215006
0.0938977
3.44323
1.32832
0.487735
0.177373
0.0774626
2.44402
0.356355
0.0711651
0.0198827
0.00817097
1.23447
0.152792
0.027814
0.00750398
0.00306292
2.35952
0.39995
0.0996435
0.0322872
0.014103
1.19525
0.164467
0.0370432
0.011692
0.00509857
2.21082
0.475064
0.139139
0.0482039
0.0214076
0.945357
0.210603
0.0693255
0.0257971
0.0118717
2.24054
0.609465
0.207726
0.0769232
0.0349836
1.13455
0.318317
0.116546
0.0447812
0.0207558
1.73277
0.615836
0.237439
0.0920764
0.0426099
-3004.2
-6123.53
-3192.67
-6205.02
-3645.12
-6357.77
-4134.75
-6616.93
-4057.88
-6669.91
-1806.45
-2591.93
-2758.08
-4158.03
-1051.31
-1372.77
-417.158
-503.574
-17182
-4312.5
-1069.45
-277.863
-93.673
-4701.22
-1340.9
-381.41
-99.8098
-30.2029
-16819.2
-4199.57
-1043.23
-269.882
-91.8399
-4799.35
-1484.07
-393.095
-104.802
-34.5126
-15777.9
-3933.9
-978.329
-253.963
-86.8949
-4649.18
-1428.05
-377.497
-100.339
-33.197
-14145.1
-3519.87
-878.078
-229.19
-78.9658
-4452.06
-1342.87
-351.664
-92.9581
-30.6784
-11626.3
-2895.25
-726.959
-191.363
-66.573
-4112.74
-1215.94
-316.683
-83.6152
-27.6568
-5417.24
-1414.99
-363.959
-97.5675
-34.4835
-2014.51
-599.44
-154.824
-40.3416
-13.4089
-8122.55
-2088.25
-531.237
-141.027
-49.458
-2938.82
-870.175
-227.132
-60.1564
-20.1244
-3167.18
-834.853
-216.265
-58.4547
-20.7878
-1150.84
-351.446
-89.9135
-23.3362
-7.80651
-1093.41
-286.228
-74.3234
-20.1714
-7.18908
-454.776
-126.79
-30.2682
-9.31419
-2.52172
-1688.81
-3076.68
-8930.39
-1089.53
-9430.52
-4190.8
-9199.62
-4431.13
-16821
-8987.08
-18676.6
-9788.55
-14.9619
-45.8807
-74.0728
-89.705
-63.4338
80.5594
-29.3308
-90.8222
-150.022
-188.765
-163.772
-1.67235
-10.236
-9.35628
-30.4464
-28.981
-44.1647
-46.1271
-35.4001
-46.5448
-11.3666
-44.5569
53.7324
-11.9068
494.873
1149.4
2014.56
1437.19
1248.71
463.922
378.508
1015.5
1779.75
2189.86
1842.72
727.777
-13.2307
-10.9087
-8.04581
-4.90093
-1.64269
-40.5755
-33.4602
-24.6857
-15.0412
-5.04245
-65.4317
-53.8833
-39.6981
-24.1623
-8.0955
-79.162
-65.1147
-47.9168
-29.1378
-9.75755
-56.2679
-46.5582
-34.4527
-21.0347
-7.058
68.3374
53.6621
37.75
22.2034
7.31371
-25.866
-21.2553
-15.6233
-9.4905
-3.1762
-80.0624
-65.7662
-48.3274
-29.3538
-9.8238
-131.954
-108.106
-79.2346
-48.0316
-16.0581
-165.506
-135.096
-98.663
-59.6493
-19.9151
-143.155
-116.452
-84.7769
-51.1382
-17.0551
-2.38255
-2.79159
-2.61383
-1.82729
-0.649799
-9.07187
-7.5007
-5.54847
-3.38778
-1.13698
-8.30303
-6.87614
-5.09516
-3.11535
-1.04636
-26.9843
-22.3123
-16.5071
-10.0805
-3.38347
-25.7043
-21.2728
-15.7525
-9.6266
-3.23243
-39.1183
-32.3212
-23.8932
-14.5816
-4.89243
-40.8399
-33.7255
-24.9167
-15.1988
-5.09816
-31.48
-26.132
-19.4057
-11.8831
-3.9938
-41.162
-33.9411
-25.0353
-15.2501
-5.11133
-10.6476
-9.34476
-7.28892
-4.6165
-1.5768
-39.3601
-32.4002
-23.8476
-14.4971
-4.85289
45.4202
35.5271
24.9068
14.6186
4.81175
-10.976
-9.43636
-7.19836
-4.4739
-1.51131
422.984
335.697
239.025
142.053
47.0835
970.997
762.302
538.586
319.064
105.863
1666.24
1285.53
898.667
531.385
177.52
1170.98
894.819
624.453
370.368
124.054
1044.66
800.709
555.354
324.958
102.963
405.176
316.474
222.105
130.244
39.8329
323.372
256.482
182.508
108.411
35.921
860.616
677.427
479.406
284.092
94.1627
1490.67
1161
815.727
482.159
160.063
1812.59
1397.58
975.996
576.053
191.686
1522.54
1169.88
814.487
479.755
158.961
604.603
466.635
326.399
192.997
63.9112
16.2659
47.7056
77.0646
94.8722
72.5822
-62.8895
31.558
93.7495
154.184
194.253
170.263
9.66743
11.1138
10.0503
31.7635
30.1735
46.402
48.3601
39.1346
49.9112
19.4713
44.1872
-29.266
21.3574
-463.603
-1101.03
-1937.49
-1368.18
-1211.66
-450.944
-366.575
-996.97
-1749.53
-2155.6
-1815.59
-708.458
14.4237
11.9348
8.83737
5.40127
1.81392
42.2431
34.8925
25.7888
15.7375
5.28057
68.1596
56.2199
41.4923
25.2921
8.48131
83.8567
69.118
50.9764
31.0569
10.4115
64.536
53.5623
39.7688
24.3502
8.18419
-52.5292
-40.4371
-27.8429
-16.0899
-5.24938
27.9099
23.0198
16.9895
10.3565
3.473
82.7516
68.0904
50.1287
30.4963
10.2155
135.782
111.419
81.8052
49.6633
16.6177
170.558
139.471
102.059
61.8055
20.6546
149.11
121.586
88.7426
53.6462
17.9136
9.58188
8.86237
7.19909
4.6756
1.61513
9.87304
8.18785
6.07704
3.72114
1.25092
8.93557
7.41778
5.51111
3.37733
1.13584
28.1838
23.3386
17.2944
10.5759
3.55259
26.7891
22.1995
16.4624
10.0728
3.38465
41.149
34.0511
25.2144
15.4099
5.17461
42.8665
35.4517
26.2348
16.025
5.37964
34.8482
28.9792
21.5625
13.2264
4.44972
44.2082
36.5262
27.0016
16.4788
5.52914
17.9309
15.473
11.9084
7.48203
2.54726
39.1939
32.429
23.9991
14.6553
4.91848
-23.6062
-17.3535
-11.3489
-6.27901
-2.00022
19.4974
16.6317
12.6404
7.85837
2.65943
-395.331
-312.886
-222.187
-131.79
-43.6431
-928.466
-727.422
-512.991
-303.546
-100.682
-1597.65
-1228.38
-856.039
-505.227
-168.748
-1102.77
-832.079
-573.417
-336.886
-112.268
-999.994
-753.811
-513.363
-295.431
-92.0175
-380.049
-283.919
-189.379
-105.671
-30.4535
-312.896
-247.917
-176.245
-104.624
-34.6576
-844.5
-664.393
-469.983
-278.453
-92.2947
-1463.74
-1138.54
-798.955
-471.849
-156.595
-1779.89
-1368.25
-952.571
-560.877
-186.411
-1493.03
-1140.39
-788.826
-462.1
-152.599
-579.947
-439.193
-300.785
-174.61
-57.1545
-1928.58
-1129.43
-453.345
-5.91221
119.985
151.889
-86.1415
-12130.2
-3162.82
-3903.78
-1844.51
-326.049
-3067.67
37.4531
977.937
290.531
-6696.55
-3326.74
-1301.94
-972.921
-2806.91
-1519.58
-559.736
-960.125
549.77
132.784
-701.707
-576.307
-7996.82
-3354.26
-4722.29
-2195.46
-2783.58
-4054.77
-1159.26
121.985
-895.383
-1094.43
-698.23
-475.308
-344.841
-219.154
-762.178
-512.442
-329.965
-195.045
-74.6405
-380.439
-296.211
-207.598
-122.29
-40.4759
-3.431
-1.09449
0.424161
0.817886
0.377601
106.581
88.1528
65.0643
39.5751
13.2413
134.52
110.939
81.7021
49.6369
16.5995
-70.1259
-52.7178
-35.777
-20.6635
-6.80428
-7758.47
-5685.19
-3990.47
-2866.91
-2069.7
-2109.05
-1345.02
-966.339
-659.166
-315.608
-2689.99
-1851.07
-1272.06
-803.807
-349.647
-1200.48
-749.293
-522.439
-335.393
-124.645
-259.72
-194.435
-134.699
-81.3541
-28.6604
-2380.86
-1763.11
-1199.51
-713.029
-254.083
47.1245
45.9925
35.4491
20.54
5.99032
804.319
614.848
424.021
246.441
80.711
256.059
207.977
149.902
89.1572
29.3129
-4201.31
-3142.88
-2225.46
-1614.76
-1159.92
-2293.13
-1572.74
-1079.9
-673.397
-278.64
-1039.9
-781.68
-541.29
-324.989
-114.205
-780.851
-587.862
-405.638
-240.854
-82.6972
-2209.16
-1643.41
-1127.06
-669.35
-234.006
-1234.1
-935.633
-646.731
-382.129
-128.483
-453.999
-343.875
-237.209
-139.672
-46.9761
-797.062
-615.366
-429.625
-253.516
-84.4363
473.579
378.346
270.316
160.49
52.953
121.832
103.349
77.2724
46.9987
15.59
-572.124
-435.155
-301.32
-177.997
-60.0023
-473.199
-361.708
-250.953
-148.01
-49.5728
-4628.92
-2884.54
-2022.26
-1429.17
-941.745
-2324.01
-1600.04
-1063.39
-644.214
-250.286
-3048.51
-2137.47
-1429.49
-899.662
-365.926
-1581.49
-1128.97
-755.081
-454.776
-172.686
-2203.72
-1643.55
-1127.58
-667.642
-229.048
-2830.32
-1886.87
-1276.85
-782.396
-288.312
-954.47
-731.598
-508.332
-299.572
-100.037
112.422
95.9409
72.2306
44.2244
14.7484
-722.292
-544.303
-374.723
-221.256
-74.8403
-18.1237
-48.0996
-83.8313
-140.302
-234.11
-375.33
-30004.6
-26664.1
-24597.7
-27913.7
-22273.9
-17779.1
-19437.2
-14833.7
-27175
-24689.2
-25136.8
-24356.9
-22252.7
-19152.6
-23683.6
-25286.6
-22768.6
-20237.5
-22692.4
-19305.2
-16350
-16658.3
-13356.6
-24931.7
-23104.6
-23086.4
-21832.5
-20172.8
-18673.8
-20018.3
-20433.3
-18833.5
-16350.5
-17833.2
-16454.5
-14220.4
-14119.9
-12008.6
-21347.5
-20502.7
-19936.1
-19229
-17478.9
-16071.9
-17447.7
-14799.3
-13969.8
-11816.6
-12537.1
-12587.7
-11311.6
-10677.9
-9564.61
-16076.8
-16598.4
-15202.4
-15727.7
-13669
-12419.2
-14088.7
-9685.76
-9272.17
-7710.67
-8064.73
-8551.44
-7748.11
-7130.54
-6475.58
-10814
-11060.2
-10326
-10463.2
-9456.63
-8584.57
-9533.57
-3525.22
-3400.07
-2807.18
-2916.01
-3177.61
-2941.57
-2627.75
-2413.53
-4041.62
-4168.53
-3826.07
-3808.97
-3549.92
-3253.57
-3570.4
-10700.9
-10452.9
-16412.7
-17711.3
-9886.83
-8702.68
-14350.4
-11595.8
-7493.26
-4994.49
-7489.08
-5138.41
-7446.96
-7239.2
-5422.77
-10574.7
-10005.5
-14758.3
-16075.2
-9234.46
-8254.76
-12817.6
-10851.1
-7452.25
-4185.15
-7348.19
-4498.27
-6710.08
-6546.03
-5031.5
-9506.05
-9007.14
-12552.4
-13482.3
-8363.34
-7625.8
-11158.1
-9681.52
-6077.58
-3971.19
-6037.06
-4321.44
-5551.28
-5592.06
-4682.61
-7461.19
-7117.62
-9406.33
-9928.76
-6660.05
-6095.2
-8603.86
-7676.89
-5282.44
-3220.19
-5187.58
-3518.17
-4785.98
-4776.74
-3802.71
-5011.17
-4807.42
-6196.09
-6472.45
-4446.01
-4022.15
-5761.87
-5178.31
-3529.71
-2228.97
-3464.26
-2436.54
-3210.83
-3172.25
-2555.02
-1837.89
-1767.11
-2259
-2348.21
-1633.27
-1473.69
-2116.8
-1915.53
-1193.65
-802.078
-1229.77
-891.808
-1173.1
-1150.2
-917.423
9721.44
31230.8
7813.11
32601.7
5729.74
33230.8
8756.58
49595.6
10705
67737.2
10808.3
50313.3
10594.7
42295.1
11054.9
37327.4
6645.8
4290.9
17959.9
10807.4
6341.31
3410.3
18919.6
9291.23
7623.3
5879.22
23952.9
17797.7
5776.31
4527.55
23994.1
18347.3
13712.9
5888.26
11943.9
5456.1
5805.72
13209.3
44534.3
11768.4
15997.3
4912.37
55641
14664.1
14334
4339.38
32834.2
9998.7
16810.9
5563.03
29445
9217.89
10652.6
5279.97
13492.6
5442.72
11657.5
6254.78
13302.5
5309.15
14111.5
8192.86
11383.5
5178.05
15975.5
5936.95
5370.72
1933.28
17626
12463.6
10424.8
7610.85
17517.1
14244
9314.07
7768.03
10750.3
7560.85
16193.4
11350.6
6493.71
4690.28
2804.74
2263.2
5644.75
4688.99
2362.47
2308.05
6792.46
4548.65
3074.85
1936.74
10240.2
5808.53
8101.38
9757.14
14749
10756.7
12324.8
17069.2
6432.15
3206.48
4540.91
5430.18
2894.14
1283.62
1714.75
1894.85
15284.8
27047.5
10127.5
30023.9
17528.3
26147.4
12319.3
30967.2
19256.1
23159.7
15409.7
29499.8
18171.9
18831.5
16079.5
16204.8
17501
18685.8
20188.6
22507.1
24727.5
35362.1
15362.1
13967.4
13697.1
15986.5
24363.9
31575.4
28231.9
36365.4
35042.3
28740
26574.4
35534.1
34017.8
24556.1
23960.7
32863.1
32373.6
13799.7
11047.8
15526.2
14017.9
18521.7
17538.8
21397
21280.6
29447.6
30720.2
12689.6
11520.3
14225.6
15023
16281.5
18717.3
19325.8
22976.9
25407.9
30519.5
11296.9
8703.02
7271.3
8619.09
13240.7
14821.3
8717.9
12924.7
6978.75
8408.54
11002.4
8983.74
1864.07
5433.63
495.666
1622.68
4148.3
8294.84
1088.19
2525.13
1361
5124.28
285.747
1512.27
7410.49
7126.22
8804.28
5610.57
12201.2
9809.18
14738.3
10419.4
2159.76
3768.15
4339.65
2542.42
1948.28
2412.72
2812.71
2058.88
22650.3
13775.6
4434.02
25434
14675.3
4808.23
21643.8
13546.5
4641.31
24761.7
14575.9
4778.42
19687.9
12364.6
4084.22
23803.4
14428.5
4797.18
7902.31
4805.03
1494.72
11668.1
7751.11
2624.31
15182.8
10254.3
3499.66
18497.5
12005.1
3985.17
23287.5
14576.1
4994.8
8886.74
5516.2
1942.55
11806.7
8533.33
3240.82
15113.8
10961.5
4059.53
18951.1
13188.9
4741.04
23618.2
14912
5301.7
245.773
2017.53
2784.14
4091.52
2624.35
2837.6
6421.92
5925.67
544.348
821.468
579.011
849.842
369.873
1149.66
722.796
1526.35
2694.89
1365.42
3632.27
2172.36
1786.36
2975.02
3230.72
-60.9472
6946.36
932.012
-3021.8
-736.892
1059.79
169.651
212.351
-349.937
7906.62
3025.71
2088.59
1103.63
8043.23
3102.76
2638.36
1366.76
8036.84
3284.7
3632.1
2060.92
2287.19
1308.57
288.99
374.752
12937.5
11008.9
5801.41
5747.15
15501
14034.4
7407.65
7113.89
4497.29
4424.94
9985.12
7826.4
3048.63
3176.73
1127.45
1570.4
4185.12
4034.9
1719.54
1994.94
2192.04
2464.24
667.465
1289.84
3468.45
1864.72
3262.11
1730.18
5840.03
2602.49
5140.71
2529.79
1673.79
1148.38
1861.37
982.629
416.365
427.998
964.694
428.367
8885.8
5032.27
3682.72
3090.5
8929.22
5358.15
3668.65
3091.56
9617.79
6045.25
3727.41
3101.94
14169.5
17094.1
11497.3
6678.35
2847.04
15932
13004.5
10591.5
7529.08
3569.56
14852
11913.3
8392.66
5504.14
2527.55
3271.95
2239.39
2539.27
2212.16
3684.8
2451.91
2685.31
2315.19
4419.97
2960.53
2925.05
2514.78
11776.2
8287.98
9508.97
6312.88
6434.27
4700.58
5010.03
3680.31
2878.68
2687.95
9853.42
8413.03
7615.77
6280.38
5571.86
4601.71
3984.14
3420.22
2190.74
2528.97
6779.69
4517.4
4303.19
2688.46
9963.59
7446.12
6602.04
5314.52
3013.57
1816.04
4574.08
3172.92
3952.1
1870.87
1056.45
543.35
4706.97
3404.63
1206.01
1011.27
2983.41
1277.76
856.47
383.266
1943.06
1560.44
1156.81
1486.38
2872.93
2317.29
1525.97
1888.85
1952.96
1063.9
825.235
1001.21
364.962
129.655
-208.516
26.6417
1352
563.019
161.578
1327.87
378.224
100.727
1533.09
674.134
202.566
1415.37
423.94
117.776
1784.7
832.595
232.126
1551.48
487.837
125.842
5377.29
3028.46
871.413
3833.55
2006.1
578.681
2902.74
1455.48
431.663
2198.09
1035.97
274.863
1686.57
530.597
115.235
6259.1
3415.97
1082.89
4518.99
2300.61
698.664
3289.77
1628.28
489.813
2397.92
1081.53
301.65
1842.73
521.41
136.266
953.641
282.225
69.0907
3.00365
391.679
118.867
31.9818
4.70557
988.132
297.091
78.5936
10.4742
469.553
147.153
55.3876
19.944
1024.59
312.191
98.7103
26.038
707.942
233.05
55.9929
8.57207
401.25
150.571
9.4315
-14.5144
213.649
102.485
27.8061
7.98347
734.855
241.19
51.4082
-11.8111
574.685
182.877
60.6582
-3.14801
950.437
292.651
85.6223
10.2054
793.221
239.8
80.7036
-5.52106
484.663
172.617
40.1329
-3.92936
370.538
126.572
46.9162
5.40767
229.869
96.0367
32.0411
11.3619
170.383
68.5703
30.3851
11.165
1170.85
344.383
86.4214
-2.83758
1064.2
311.334
107.797
-2.0017
1155.62
340.656
86.7136
-3.06325
1031.45
299.98
106.494
-2.7029
1115.67
329.244
100.885
8.54941
972.207
279.978
112.054
4.42766
941.716
283.461
106.3
30.1163
1055.57
301.797
138.895
8.45649
794.126
236.449
94.7965
12.144
758.648
210.825
85.6228
6.41682
283.759
74.9335
25.1576
6.01192
796.748
221.337
88.0796
6.98516
301.299
79.7461
27.6575
7.52695
838.522
232.789
95.1363
9.36324
320.308
85.2396
30.1573
8.9859
771.141
214.87
98.7165
11.96
321.707
86.0736
35.0626
11.245
701.212
200.8
93.5653
14.7742
292.89
84.224
39.4812
13.362
420.243
123.741
43.9775
5.5243
232.309
77.2515
29.8594