/*--------------------------------*- C++ -*----------------------------------*\
| =========                 |                                                 |
| \\      /  F ield         | OpenFOAM: The Open Source CFD Toolbox           |
|  \\    /   O peration     | Version:  2306                                  |
|   \\  /    A nd           | Website:  www.openfoam.com                      |
|    \\/     M anipulation  |                                                 |
\*---------------------------------------------------------------------------*/
FoamFile
{
    version     2.0;
    format      ascii;
    arch        "LSB;label=32;scalar=64";
    class       volVectorField;
    location    "1.1";
    object      flux;
}
// * * * * * * * * * * * * * * * * * * * * * * * * * * * * * * * * * * * * * //

dimensions      [0 1 -1 1 0 0 0];

internalField   nonuniform List<vector> 
5322
(
(-2.04331e-06 5.1765e-06 -6.86199e-06)
(1.41218e-07 6.77135e-07 -5.9645e-06)
(1.40785e-07 2.24772e-07 -4.54335e-06)
(-3.10478e-09 1.53734e-07 -4.90178e-06)
(-9.381e-09 1.89375e-07 -3.22467e-06)
(-6.87044e-09 1.63637e-07 -1.96802e-06)
(-3.92555e-09 1.13326e-07 -1.11222e-06)
(-2.05367e-09 6.92638e-08 -5.82405e-07)
(-1.05661e-09 3.89862e-08 -2.83922e-07)
(-4.49527e-10 1.97607e-08 -1.31974e-07)
(-9.30692e-11 6.16756e-09 -6.43264e-08)
(6.1944e-10 -9.30834e-09 -4.46576e-08)
(7.25692e-10 -7.63599e-09 -2.80276e-08)
(-9.19897e-09 -7.32501e-09 -4.1896e-08)
(1.8548e-10 -7.15214e-09 -4.81725e-08)
(2.02756e-08 1.80792e-08 -4.56923e-08)
(-1.53755e-08 2.30978e-08 -5.24843e-08)
(1.10759e-09 -4.19965e-10 -4.59094e-08)
(-1.4263e-08 2.17472e-08 -7.79653e-08)
(2.05846e-08 -4.15713e-08 -1.11856e-07)
(-2.6397e-08 5.41616e-08 -1.75692e-07)
(5.09232e-08 -8.9801e-08 -2.52299e-07)
(-5.276e-08 1.18975e-07 -3.853e-07)
(1.10173e-07 -1.90296e-07 -5.40861e-07)
(-1.15264e-07 2.5103e-07 -7.90737e-07)
(2.09761e-07 -3.66105e-07 -1.05914e-06)
(-2.11034e-07 4.66208e-07 -1.48444e-06)
(3.84302e-07 -6.74128e-07 -1.93603e-06)
(-3.90408e-07 8.3526e-07 -2.59738e-06)
(6.30695e-07 -1.11328e-06 -3.23743e-06)
(-5.99332e-07 1.34321e-06 -4.16399e-06)
(1.02898e-06 -1.72916e-06 -5.04329e-06)
(-7.52405e-07 2.08074e-06 -6.17571e-06)
(1.64603e-06 -2.1832e-06 -7.05313e-06)
(2.01311e-07 2.31416e-06 -7.83515e-06)
(2.61917e-06 -1.39451e-06 -7.11844e-06)
(1.86156e-06 2.83092e-06 -8.55568e-06)
(-7.37178e-07 3.40506e-06 -8.32643e-06)
(2.02544e-06 1.73146e-06 -8.5734e-06)
(-1.22967e-07 1.97449e-06 -6.39556e-06)
(-1.92439e-06 2.51746e-06 -7.93357e-06)
(1.92639e-06 2.12007e-06 -8.19054e-06)
(-1.16401e-07 2.30308e-06 -6.26571e-06)
(-2.0471e-06 2.35428e-06 -8.1898e-06)
(2.0394e-06 2.24587e-06 -8.1066e-06)
(-6.84258e-08 2.34832e-06 -6.38022e-06)
(-2.17457e-06 2.28199e-06 -8.31246e-06)
(1.92551e-06 2.43977e-06 -7.86432e-06)
(-4.26229e-08 2.3923e-06 -6.32286e-06)
(-2.28478e-06 2.17206e-06 -8.21003e-06)
(-2.2759e-06 2.7496e-06 -9.46985e-06)
(-3.25278e-06 1.18399e-06 -6.24864e-06)
(-1.10391e-06 1.41722e-06 -8.84444e-06)
(2.0029e-06 -4.24122e-06 -7.60342e-06)
(-1.32765e-07 -1.94699e-07 -6.6041e-06)
(-3.25209e-06 -2.42577e-06 -7.17908e-06)
(-1.02657e-07 1.36685e-06 -9.09068e-06)
(3.08459e-06 -3.14944e-06 -7.02817e-06)
(-3.65552e-08 -1.35804e-07 -6.5865e-06)
(-3.08268e-06 -2.73496e-06 -7.14756e-06)
(-1.27981e-08 1.38684e-06 -9.17755e-06)
(3.00365e-06 -3.09308e-06 -7.12175e-06)
(-1.47119e-08 -1.20344e-07 -6.58255e-06)
(-3.02813e-06 -2.71532e-06 -6.97391e-06)
(5.05172e-09 1.39356e-06 -9.1816e-06)
(2.96594e-06 -3.21191e-06 -7.38495e-06)
(4.70087e-08 -1.71769e-07 -6.56579e-06)
(-3.00008e-06 -2.63925e-06 -6.63984e-06)
(1.71368e-07 1.41744e-06 -9.03049e-06)
(2.48246e-06 -3.60914e-06 -7.90848e-06)
(1.64463e-07 9.85382e-08 -5.48436e-06)
(-2.24612e-06 2.63956e-06 -7.87292e-06)
(2.55424e-06 1.46093e-06 -7.48991e-06)
(-2.62652e-06 2.05332e-06 -7.37563e-06)
(2.52686e-06 1.52268e-06 -7.44104e-06)
(-2.57452e-06 1.93923e-06 -7.40543e-06)
(2.57617e-06 1.61064e-06 -7.40014e-06)
(-2.57986e-06 1.93494e-06 -7.38494e-06)
(2.94188e-06 1.64869e-06 -7.51658e-06)
(-2.17487e-06 2.32918e-06 -7.20745e-06)
(1.00073e-06 1.49954e-07 -7.09219e-06)
(-1.67196e-06 9.76293e-07 -5.89079e-06)
(-1.15093e-06 1.40679e-06 -6.11254e-06)
(1.70804e-06 2.1873e-06 -7.64044e-06)
(1.27913e-07 -1.23091e-07 -4.78607e-06)
(-6.52152e-07 -7.29091e-07 -6.69246e-06)
(1.29913e-06 3.04863e-07 -1.01752e-05)
(-3.63499e-06 5.69487e-07 -6.82508e-06)
(-1.05461e-06 1.29689e-06 -6.76724e-06)
(3.85279e-06 2.016e-07 -5.76238e-06)
(-1.78299e-07 3.50451e-07 -7.03535e-06)
(2.58358e-08 5.91276e-08 -4.43388e-06)
(4.24424e-08 7.42891e-09 -4.66535e-06)
(3.62626e-07 6.52219e-09 -4.66603e-06)
(2.05745e-06 2.46127e-06 -6.23491e-06)
(-3.65064e-07 -1.47792e-06 -6.33381e-06)
(7.8261e-08 4.93775e-08 -5.83555e-06)
(-9.28694e-08 1.49407e-06 -6.41325e-06)
(1.33542e-06 4.83994e-08 -1.03385e-05)
(-3.20427e-06 -1.01908e-07 -6.61567e-06)
(-3.19422e-06 3.09668e-07 -6.70723e-06)
(6.3155e-06 5.21876e-08 -5.8368e-06)
(-9.76378e-08 1.60619e-06 -6.46598e-06)
(1.59482e-06 -2.39197e-06 -6.17232e-06)
(2.6079e-06 2.14803e-06 -6.75188e-06)
(1.08219e-07 6.26824e-08 -5.68468e-06)
(3.59328e-08 -5.27936e-08 -5.94785e-06)
(2.1932e-08 -5.74028e-09 -4.95956e-06)
(9.48851e-09 1.7492e-09 -3.26652e-06)
(2.21645e-09 4.63228e-09 -1.99721e-06)
(-4.8842e-10 3.91737e-09 -1.12811e-06)
(-1.05839e-09 2.62639e-09 -5.88851e-07)
(-9.06408e-10 1.58095e-09 -2.84774e-07)
(-5.64504e-10 8.23106e-10 -1.3053e-07)
(-1.73296e-10 2.9755e-10 -7.03128e-08)
(-1.78765e-10 2.1915e-10 -5.00489e-08)
(-6.35446e-09 6.54315e-09 -3.78201e-08)
(-5.76619e-09 -1.99333e-09 -3.91557e-08)
(9.83522e-10 -1.18043e-09 -6.35685e-08)
(3.25148e-09 -4.17542e-09 -4.19773e-08)
(-5.26981e-11 5.62673e-09 -3.47032e-08)
(4.52319e-09 -2.10659e-09 -3.87682e-08)
(-5.53955e-09 -4.69232e-09 -3.81907e-08)
(-4.96882e-10 -6.86773e-09 -5.1721e-08)
(-1.72846e-09 -7.51676e-09 -3.95232e-08)
(8.65658e-09 -2.40568e-10 -5.08219e-08)
(6.83384e-09 5.92174e-09 -3.78557e-08)
(1.53876e-09 -4.22775e-09 -3.95742e-08)
(5.4684e-09 4.7736e-10 -5.02945e-08)
(3.19398e-09 4.80377e-09 -3.80916e-08)
(2.28364e-09 -4.71395e-09 -3.90784e-08)
(5.89566e-09 2.16864e-10 -5.09472e-08)
(2.56692e-09 4.94825e-09 -3.87349e-08)
(2.79938e-09 -5.11271e-09 -3.84048e-08)
(5.98475e-09 -2.11873e-10 -5.10427e-08)
(2.13763e-09 4.53763e-09 -3.90151e-08)
(4.69452e-09 -5.55249e-09 -3.83809e-08)
(6.81088e-09 -5.11011e-10 -5.21452e-08)
(7.49327e-09 -1.72457e-09 -3.9809e-08)
(2.67928e-10 8.59568e-09 -5.11776e-08)
(-5.87952e-09 6.84085e-09 -3.81666e-08)
(5.90441e-11 -5.43384e-09 -3.49477e-08)
(4.21327e-09 3.30967e-09 -4.21709e-08)
(-5.62772e-09 2.56809e-09 -3.87502e-08)
(-6.48534e-09 -6.34895e-09 -3.79759e-08)
(1.23807e-09 1.04651e-09 -6.37971e-08)
(2.03765e-09 -5.75271e-09 -3.93028e-08)
(7.99967e-10 4.30697e-09 -3.91983e-08)
(-5.02221e-09 4.75555e-09 -3.77005e-08)
(-5.6107e-09 -5.39138e-09 -3.81376e-08)
(1.44869e-09 -9.63914e-11 -6.4876e-08)
(1.00259e-09 -4.62994e-09 -3.93289e-08)
(1.38983e-09 4.73699e-09 -3.92053e-08)
(-5.5741e-09 5.54349e-09 -3.79395e-08)
(-5.09909e-09 -4.64956e-09 -3.78941e-08)
(1.47727e-09 3.14741e-11 -6.47492e-08)
(3.97156e-10 -4.1203e-09 -3.91565e-08)
(2.61359e-09 5.7229e-09 -3.86222e-08)
(-5.44137e-09 -1.89213e-11 -3.47801e-08)
(7.17329e-09 1.72657e-10 -4.83311e-08)
(-1.80287e-08 2.03337e-08 -4.57639e-08)
(-2.3099e-08 -1.53922e-08 -5.27406e-08)
(2.97229e-08 2.44343e-08 -8.71922e-08)
(-4.73147e-08 -3.79224e-08 -1.22521e-07)
(-3.057e-09 2.4131e-09 -6.26066e-08)
(-2.19181e-08 -1.41707e-08 -7.83917e-08)
(5.69646e-10 1.08102e-09 -4.61087e-08)
(1.75263e-08 2.43437e-09 -5.3488e-08)
(-3.84249e-09 -1.00583e-09 -3.09425e-08)
(1.51807e-08 4.70664e-09 -4.03983e-08)
(7.37177e-09 -9.2214e-09 -4.20868e-08)
(1.12184e-08 9.35961e-09 -3.95153e-08)
(-2.16807e-08 -1.92592e-08 -5.04246e-08)
(7.32201e-09 1.32259e-10 -5.02501e-08)
(-1.88477e-08 1.99207e-08 -4.85062e-08)
(1.76726e-08 -2.77469e-08 -8.3711e-08)
(2.29797e-08 2.89985e-08 -8.28601e-08)
(-4.02346e-08 -4.30014e-08 -1.16396e-07)
(4.39114e-09 3.5116e-10 -7.92749e-08)
(-3.43134e-08 4.28102e-08 -1.16583e-07)
(4.51162e-08 -6.51551e-08 -1.78988e-07)
(5.63022e-08 6.7876e-08 -1.78939e-07)
(-8.85003e-08 -9.94173e-08 -2.60696e-07)
(6.64906e-09 6.95146e-10 -1.78082e-07)
(-7.43992e-08 9.81204e-08 -2.61528e-07)
(1.03311e-07 -1.44353e-07 -3.87872e-07)
(1.26728e-07 1.49909e-07 -3.87931e-07)
(-1.87038e-07 -2.12964e-07 -5.51811e-07)
(1.36902e-08 1.26076e-09 -3.84651e-07)
(-1.56478e-07 2.09867e-07 -5.53127e-07)
(2.1537e-07 -2.96626e-07 -7.89715e-07)
(2.62521e-07 3.07507e-07 -7.89964e-07)
(-3.70299e-07 -4.21036e-07 -1.08353e-06)
(2.5962e-08 2.28467e-09 -7.7187e-07)
(-3.09707e-07 4.14547e-07 -1.08613e-06)
(4.09433e-07 -5.64704e-07 -1.49129e-06)
(5.00268e-07 5.84734e-07 -1.49259e-06)
(-6.84949e-07 -7.6875e-07 -1.96756e-06)
(4.5227e-08 4.08056e-09 -1.43268e-06)
(-5.73628e-07 7.55514e-07 -1.97307e-06)
(7.11224e-07 -9.9628e-07 -2.60816e-06)
(8.77023e-07 1.03035e-06 -2.6126e-06)
(-1.18029e-06 -1.29343e-06 -3.30387e-06)
(7.38978e-08 6.56657e-09 -2.45828e-06)
(-9.862e-07 1.26589e-06 -3.31426e-06)
(1.12727e-06 -1.62104e-06 -4.21365e-06)
(1.41264e-06 1.67296e-06 -4.22533e-06)
(-1.86576e-06 -1.97235e-06 -5.12713e-06)
(1.15685e-07 1.01357e-08 -3.88228e-06)
(-1.53749e-06 1.91701e-06 -5.14685e-06)
(1.59132e-06 -2.4001e-06 -6.1941e-06)
(1.97988e-06 2.41876e-06 -6.20642e-06)
(-3.17753e-07 -1.48398e-06 -6.40394e-06)
(1.2784e-06 -1.21045e-08 -1.03362e-05)
(-3.1698e-06 -1.91737e-07 -6.61209e-06)
(-3.23342e-06 9.86984e-08 -6.59316e-06)
(6.33902e-06 -5.43109e-08 -5.85405e-06)
(-2.91489e-07 -2.6945e-09 -7.91015e-06)
(-3.09043e-07 1.23874e-08 -7.8936e-06)
(5.10986e-08 2.14829e-08 -4.66589e-06)
(3.94955e-07 2.05843e-09 -4.67425e-06)
(2.05067e-06 2.46376e-06 -6.22633e-06)
(-2.56699e-07 -1.4774e-06 -6.38709e-06)
(9.92737e-08 5.43163e-09 -5.79248e-06)
(-3.21863e-07 1.78233e-06 -6.50534e-06)
(1.22957e-06 -2.8784e-07 -1.03383e-05)
(-3.22152e-06 -1.39443e-07 -6.65842e-06)
(-3.17997e-06 1.23429e-07 -6.58349e-06)
(6.29987e-06 -1.06309e-07 -5.87006e-06)
(-1.40315e-07 1.48342e-06 -6.37609e-06)
(1.59336e-06 -2.42731e-06 -6.19982e-06)
(7.54322e-08 1.53878e-08 -5.83045e-06)
(5.60992e-08 1.0309e-08 -5.80324e-06)
(2.5749e-08 3.01132e-08 -4.95037e-06)
(1.23996e-08 1.46472e-08 -3.26926e-06)
(3.79011e-09 4.9022e-09 -2.00153e-06)
(1.59023e-10 7.1596e-10 -1.13094e-06)
(-8.40079e-10 -5.60062e-10 -5.90328e-07)
(-8.53943e-10 -7.18804e-10 -2.85453e-07)
(-5.48549e-10 -4.90497e-10 -1.30818e-07)
(-1.83744e-10 -1.49991e-10 -7.04672e-08)
(-1.82978e-10 -1.64968e-10 -5.01868e-08)
(4.72826e-09 -5.11845e-09 -3.793e-08)
(-5.43635e-09 -5.57807e-09 -3.80535e-08)
(5.50155e-09 -5.6121e-09 -3.80312e-08)
(-4.66255e-09 -5.09438e-09 -3.78401e-08)
(8.58887e-11 1.5374e-09 -6.47587e-08)
(4.62788e-09 1.25765e-09 -3.92022e-08)
(-4.1049e-09 4.88872e-10 -3.91749e-08)
(5.53708e-11 -6.37303e-09 -3.61671e-08)
(-4.58385e-09 2.41457e-09 -3.91593e-08)
(2.0606e-11 -5.8777e-09 -6.226e-08)
(-4.54892e-09 1.23168e-09 -3.92016e-08)
(2.73078e-12 1.54134e-09 -6.4837e-08)
(4.18003e-09 5.20133e-10 -3.9273e-08)
(1.50595e-10 -5.79591e-09 -6.174e-08)
(4.20917e-09 1.5584e-09 -3.96808e-08)
(-4.01978e-10 5.34208e-09 -5.03991e-08)
(-4.6914e-09 3.11772e-09 -3.82176e-08)
(-2.57541e-11 -6.37949e-09 -3.62219e-08)
(4.60552e-09 2.42992e-09 -3.91963e-08)
(7.76709e-12 5.81676e-09 -5.04938e-08)
(1.63701e-11 8.18742e-09 -2.79475e-08)
(9.12651e-09 9.29121e-09 -4.08874e-08)
(-1.93497e-08 -1.98248e-08 -4.85645e-08)
(1.9425e-08 -1.98227e-08 -4.85137e-08)
(-1.89451e-08 -2.11418e-08 -5.04927e-08)
(2.86716e-08 2.1888e-08 -8.29746e-08)
(-4.24524e-08 -3.8621e-08 -1.16514e-07)
(6.70879e-08 5.35153e-08 -1.79205e-07)
(-9.80838e-08 -8.43825e-08 -2.60866e-07)
(1.48038e-07 1.20347e-07 -3.8848e-07)
(-2.1005e-07 -1.77885e-07 -5.51987e-07)
(3.03542e-07 2.49321e-07 -7.9099e-07)
(-4.15265e-07 -3.51814e-07 -1.08374e-06)
(5.77136e-07 4.75201e-07 -1.49448e-06)
(-7.58066e-07 -6.50715e-07 -1.96767e-06)
(1.01714e-06 8.3368e-07 -2.61629e-06)
(-1.27532e-06 -1.12322e-06 -3.3029e-06)
(1.65296e-06 1.34719e-06 -4.23292e-06)
(-1.94609e-06 -1.78469e-06 -5.12141e-06)
(2.43551e-06 1.97897e-06 -6.25181e-06)
(-1.4671e-06 -3.17922e-07 -6.32949e-06)
(3.90997e-08 1.35745e-06 -1.03446e-05)
(1.48839e-06 -1.65552e-07 -6.44303e-06)
(4.41324e-08 8.37528e-08 -5.83509e-06)
(-2.37049e-06 1.71402e-06 -6.18087e-06)
(1.89737e-06 -1.64147e-06 -5.16211e-06)
(1.16548e-08 1.20225e-07 -3.88563e-06)
(-1.60156e-06 1.22129e-06 -4.21414e-06)
(1.25096e-06 -1.06172e-06 -3.32054e-06)
(6.59648e-09 7.59026e-08 -2.46052e-06)
(-9.84518e-07 7.71806e-07 -2.61077e-06)
(7.46078e-07 -6.19647e-07 -1.97538e-06)
(3.74613e-09 4.61448e-08 -1.4339e-06)
(-5.58129e-07 4.44035e-07 -1.49319e-06)
(4.09249e-07 -3.34885e-07 -1.08701e-06)
(2.02974e-09 2.63868e-08 -7.72485e-07)
(-2.93212e-07 2.33462e-07 -7.90816e-07)
(2.07187e-07 -1.69083e-07 -5.53477e-07)
(1.08562e-09 1.38877e-08 -3.84965e-07)
(-1.42722e-07 1.12126e-07 -3.88546e-07)
(9.69015e-08 -8.01301e-08 -2.61628e-07)
(5.89919e-10 6.75207e-09 -1.78237e-07)
(-6.44428e-08 4.9054e-08 -1.79408e-07)
(4.2268e-08 -3.66782e-08 -1.1658e-07)
(3.10305e-10 4.43855e-09 -7.93333e-08)
(-2.73962e-08 1.91927e-08 -8.38986e-08)
(7.08801e-11 -2.14691e-09 -5.7352e-08)
(2.75708e-08 1.92141e-08 -8.39132e-08)
(-4.19938e-08 -3.66201e-08 -1.16628e-07)
(-1.60267e-10 4.4448e-09 -7.93988e-08)
(-2.84893e-08 2.19679e-08 -8.30622e-08)
(1.90428e-08 -2.10894e-08 -5.05728e-08)
(-7.27837e-11 7.36742e-09 -5.03936e-08)
(-9.19125e-09 1.08736e-08 -3.95789e-08)
(-6.26307e-10 7.44618e-09 -2.8172e-08)
(9.21818e-09 7.47482e-09 -4.2386e-08)
(-2.00956e-08 -1.84936e-08 -4.59808e-08)
(2.71964e-08 1.73657e-08 -8.37093e-08)
(-4.20556e-08 -3.4552e-08 -1.16187e-07)
(6.34608e-08 4.70618e-08 -1.78933e-07)
(-9.53215e-08 -7.54354e-08 -2.61653e-07)
(1.41261e-07 1.09039e-07 -3.8927e-07)
(-2.02743e-07 -1.59868e-07 -5.53715e-07)
(2.91451e-07 2.27946e-07 -7.94845e-07)
(-3.9919e-07 -3.18047e-07 -1.08742e-06)
(5.57516e-07 4.34935e-07 -1.50431e-06)
(-7.26213e-07 -5.93131e-07 -1.97503e-06)
(9.90906e-07 7.63131e-07 -2.6411e-06)
(-1.2147e-06 -1.02719e-06 -3.3068e-06)
(1.62627e-06 1.23016e-06 -4.29187e-06)
(-1.82757e-06 -1.584e-06 -5.08542e-06)
(2.40137e-06 1.74841e-06 -6.2994e-06)
(-1.45018e-06 -1.55975e-07 -6.37576e-06)
(-3.76486e-07 1.02711e-06 -1.02453e-05)
(6.01146e-07 -6.97517e-07 -6.79831e-06)
(6.42262e-08 1.20918e-07 -5.67486e-06)
(-2.23824e-06 2.4269e-06 -6.79524e-06)
(1.6756e-06 -2.30866e-06 -5.61044e-06)
(9.92596e-09 1.45306e-07 -3.78703e-06)
(-1.46577e-06 1.78726e-06 -4.60505e-06)
(1.13479e-06 -1.44145e-06 -3.57454e-06)
(-8.09846e-09 8.51822e-08 -2.39371e-06)
(-8.71487e-07 1.11493e-06 -2.83215e-06)
(6.69204e-07 -8.18775e-07 -2.11016e-06)
(-9.04489e-09 4.87824e-08 -1.39088e-06)
(-4.89866e-07 6.33868e-07 -1.61222e-06)
(3.633e-07 -4.3802e-07 -1.15616e-06)
(-6.37824e-09 2.73653e-08 -7.48009e-07)
(-2.57479e-07 3.34185e-07 -8.52111e-07)
(1.83383e-07 -2.19683e-07 -5.86794e-07)
(-4.32063e-09 1.4301e-08 -3.72179e-07)
(-1.25351e-07 1.62976e-07 -4.16958e-07)
(8.61987e-08 -1.02895e-07 -2.75929e-07)
(-2.78342e-09 7.04245e-09 -1.71916e-07)
(-5.64734e-08 7.32399e-08 -1.90978e-07)
(3.80244e-08 -4.64301e-08 -1.22675e-07)
(-1.82447e-09 4.63712e-09 -7.60469e-08)
(-2.39208e-08 2.94999e-08 -8.72793e-08)
(1.53502e-08 -2.28276e-08 -5.28827e-08)
(-1.2023e-10 7.22991e-09 -4.85458e-08)
(-4.62616e-09 1.52203e-08 -4.05874e-08)
(7.27072e-09 1.29444e-08 -4.00229e-08)
(1.22313e-08 -6.39208e-09 -3.74445e-08)
(-1.93007e-09 1.75546e-08 -5.35639e-08)
(8.12741e-10 -3.82938e-09 -3.09659e-08)
(-2.38649e-09 1.36591e-09 -3.55158e-08)
(7.86491e-09 1.84618e-08 -4.70259e-08)
(-2.47528e-08 -1.66175e-08 -4.48742e-08)
(2.63389e-08 2.13846e-08 -8.43555e-08)
(-4.83317e-08 -3.05381e-08 -1.19422e-07)
(-3.25457e-08 4.86265e-08 -1.15863e-07)
(-4.10837e-08 -4.37287e-08 -1.16401e-07)
(4.54353e-09 -6.47703e-10 -7.84769e-08)
(1.85253e-08 -3.32273e-08 -8.24022e-08)
(2.07796e-08 2.83026e-08 -8.41124e-08)
(-2.1371e-08 -2.06952e-08 -4.67878e-08)
(6.93023e-09 2.97248e-10 -4.99574e-08)
(-1.85281e-08 2.10112e-08 -5.106e-08)
(-2.49542e-09 6.22169e-10 -5.68062e-08)
(-5.51036e-11 -4.01502e-10 -5.54376e-08)
(-6.20716e-09 -4.99942e-09 -5.87172e-08)
(4.10467e-10 3.91301e-10 -4.19653e-08)
(-3.18308e-10 -4.00176e-10 -4.01513e-08)
(-6.09922e-09 2.41878e-10 -6.16083e-08)
(-1.24919e-09 -2.95704e-10 -6.07184e-08)
(-2.41948e-09 -2.05639e-10 -5.72874e-08)
(-1.94028e-08 1.97305e-08 -5.01327e-08)
(-2.11083e-08 -1.98513e-08 -4.88606e-08)
(2.14449e-08 2.82052e-08 -8.3913e-08)
(-3.99951e-08 -4.27685e-08 -1.16636e-07)
(-4.09473e-09 1.25479e-10 -1.19609e-07)
(5.44487e-08 6.62273e-08 -1.79475e-07)
(-8.81648e-08 -9.80776e-08 -2.61658e-07)
(1.24421e-07 1.46834e-07 -3.8866e-07)
(-1.86444e-07 -2.09634e-07 -5.53456e-07)
(-1.87846e-08 9.63503e-10 -5.42977e-07)
(2.59512e-07 3.02101e-07 -7.91453e-07)
(-3.69385e-07 -4.13704e-07 -1.08632e-06)
(4.95565e-07 5.75953e-07 -1.49569e-06)
(-6.83506e-07 -7.53421e-07 -1.97178e-06)
(-2.15154e-08 3.06784e-09 -1.86573e-06)
(8.679e-07 1.01655e-06 -2.61799e-06)
(-1.17275e-06 -1.26249e-06 -3.3079e-06)
(1.38881e-06 1.64847e-06 -4.22957e-06)
(-1.82661e-06 -1.91736e-06 -5.1324e-06)
(3.79335e-07 -3.97336e-09 -4.67345e-06)
(5.05174e-08 3.28432e-09 -4.6647e-06)
(-2.63834e-10 5.33592e-09 -3.0797e-06)
(3.66814e-09 1.55849e-08 -3.08521e-06)
(-2.15091e-08 6.96251e-09 -1.8858e-06)
(-1.9344e-08 7.8813e-09 -1.87331e-06)
(9.02157e-07 1.02876e-06 -2.63554e-06)
(-1.20459e-06 -1.2632e-06 -3.31435e-06)
(8.2463e-08 5.14737e-09 -2.46553e-06)
(-9.76761e-07 1.5042e-06 -3.35351e-06)
(1.05362e-06 -1.88862e-06 -4.22045e-06)
(1.45452e-06 1.68471e-06 -4.26899e-06)
(-1.83382e-06 -1.89998e-06 -5.11023e-06)
(1.4053e-07 1.68013e-08 -3.88907e-06)
(-1.61344e-06 2.32466e-06 -5.23775e-06)
(1.4152e-06 -2.69936e-06 -6.14547e-06)
(2.84971e-06 1.74157e-06 -6.98038e-06)
(-1.86835e-07 -1.36874e-06 -6.26339e-06)
(1.86157e-07 -2.69861e-06 -1.04977e-05)
(-3.47941e-06 -2.17013e-07 -6.84861e-06)
(-3.24097e-06 1.72714e-08 -6.47252e-06)
(6.05068e-06 -9.64837e-07 -6.08842e-06)
(-4.22616e-07 -2.64198e-07 -7.76648e-06)
(4.82337e-08 2.8798e-08 -4.44843e-06)
(9.0664e-08 1.27485e-06 -4.07762e-06)
(-1.30003e-06 1.51837e-06 -5.47277e-06)
(2.37904e-07 9.10502e-08 -3.24805e-06)
(6.50788e-07 -1.84548e-06 -4.29494e-06)
(-6.78377e-07 1.1516e-06 -3.40131e-06)
(3.90134e-08 -9.01402e-09 -2.00348e-06)
(4.26796e-07 -9.31137e-07 -2.6462e-06)
(-3.76863e-07 6.81375e-07 -1.97468e-06)
(-1.46812e-09 -1.71988e-08 -1.1537e-06)
(2.30565e-07 -4.90509e-07 -1.51117e-06)
(-2.11029e-07 3.7493e-07 -1.07815e-06)
(-4.81094e-09 -1.04235e-08 -6.19214e-07)
(1.10677e-07 -2.46192e-07 -7.94821e-07)
(-1.06654e-07 1.89441e-07 -5.41251e-07)
(-5.2387e-09 -7.22564e-09 -3.06949e-07)
(5.52897e-08 -1.18746e-07 -3.88338e-07)
(-4.96207e-08 9.20118e-08 -2.52501e-07)
(-4.33885e-09 -4.42921e-09 -1.412e-07)
(2.59782e-08 -5.06848e-08 -1.75219e-07)
(-1.91806e-08 4.2029e-08 -1.10976e-07)
(-3.0645e-09 -3.47321e-09 -6.23144e-08)
(1.49233e-08 -2.06262e-08 -7.82042e-08)
(4.55494e-09 3.40391e-09 -4.92519e-08)
(2.97774e-09 6.67769e-09 -4.69882e-08)
(-1.31678e-10 -1.44071e-08 -7.17555e-08)
(-1.00427e-10 -2.11015e-09 -7.40238e-08)
(1.09764e-08 2.84163e-08 -9.98623e-08)
(-4.63997e-09 -4.25993e-08 -1.60347e-07)
(6.70565e-08 4.68404e-08 -1.80344e-07)
(-1.06485e-07 -6.96524e-08 -2.68348e-07)
(1.54438e-07 1.03183e-07 -3.96123e-07)
(-2.26405e-07 -1.48794e-07 -5.68749e-07)
(-1.45873e-07 2.39401e-07 -5.51722e-07)
(-1.91595e-07 -2.11622e-07 -5.5485e-07)
(1.40204e-08 -1.70167e-09 -3.84e-07)
(1.0174e-07 -1.69006e-07 -3.89766e-07)
(1.27754e-07 1.4645e-07 -3.89183e-07)
(-9.04207e-08 -9.9378e-08 -2.62173e-07)
(6.81209e-09 -1.2235e-09 -1.77431e-07)
(-6.89557e-08 1.11516e-07 -2.59713e-07)
(-7.4886e-09 6.04712e-10 -2.6073e-07)
(-3.88296e-09 -3.86275e-09 -2.5417e-07)
(-1.59429e-09 -1.82357e-09 -1.15501e-07)
(-2.45593e-09 -2.5414e-09 -9.8748e-08)
(-4.50695e-09 -1.23416e-08 -1.22316e-07)
(2.06513e-09 -2.87032e-09 -1.10339e-07)
(6.26542e-10 -2.39555e-10 -1.04713e-07)
(-4.79941e-09 -9.1957e-10 -1.26e-07)
(-1.90077e-08 2.68544e-09 -1.30818e-07)
(-5.79402e-09 1.74098e-09 -6.39529e-08)
(8.2735e-09 5.54404e-10 -4.44998e-08)
(1.01575e-08 -9.45508e-10 -2.89564e-08)
(8.96471e-09 1.42617e-08 -5.05691e-08)
(3.36769e-09 4.48261e-09 -2.92033e-08)
(1.75696e-08 5.15715e-10 -4.65035e-08)
(5.36497e-09 3.86461e-09 -6.01528e-08)
(9.87935e-09 -2.01324e-09 -8.65833e-08)
(1.36016e-08 -6.68157e-09 -1.89486e-07)
(-1.83139e-08 -5.26951e-09 -2.79184e-07)
(-3.94343e-08 4.78932e-09 -2.82937e-07)
(-7.4828e-08 9.44134e-09 -5.84857e-07)
(-3.92443e-08 -1.01546e-08 -5.85271e-07)
(2.26004e-08 -1.46395e-08 -4.06875e-07)
(-1.56023e-08 -9.74019e-08 -3.54698e-07)
(3.75322e-09 -8.29267e-09 -3.6946e-07)
(3.91462e-08 1.28162e-07 -4.9684e-07)
(-3.49119e-08 -2.03086e-07 -7.23612e-07)
(3.22534e-07 2.12086e-07 -8.14489e-07)
(-4.49538e-07 -2.93496e-07 -1.11785e-06)
(6.18928e-07 4.07335e-07 -1.54704e-06)
(-8.39343e-07 -5.36023e-07 -2.03389e-06)
(-5.47678e-07 8.78203e-07 -1.98284e-06)
(-7.04454e-07 -7.57075e-07 -1.97833e-06)
(4.77643e-08 -4.96325e-10 -1.43474e-06)
(3.9498e-07 -6.56873e-07 -1.50194e-06)
(5.12475e-07 5.78769e-07 -1.50237e-06)
(-3.80238e-07 -4.16663e-07 -1.08951e-06)
(2.68681e-08 -1.81065e-09 -7.71835e-07)
(-2.9124e-07 4.76003e-07 -1.08726e-06)
(-1.98215e-08 4.62678e-09 -1.05116e-06)
(-7.89606e-09 -8.82275e-09 -1.01111e-06)
(-6.50371e-09 -6.45019e-09 -5.26546e-07)
(-7.94629e-09 3.46875e-09 -4.58646e-07)
(-1.90684e-08 -5.63843e-08 -5.52268e-07)
(-1.25107e-09 -2.86829e-08 -5.29319e-07)
(-5.89875e-09 -2.02341e-08 -5.03065e-07)
(-1.03041e-08 -2.8694e-08 -2.66447e-07)
(-6.53684e-10 -1.30604e-08 -2.46319e-07)
(-2.43263e-09 -9.39067e-09 -2.34325e-07)
(2.08098e-08 6.07658e-08 -2.3096e-07)
(1.65833e-09 -4.12425e-09 -1.69554e-07)
(-4.69028e-09 -1.36671e-09 -2.19423e-07)
(-4.35342e-10 1.23466e-08 -1.94384e-07)
(6.73265e-10 -1.89694e-08 -1.32875e-07)
(1.72893e-10 -5.88704e-09 -6.49052e-08)
(-5.59379e-10 9.48037e-09 -4.50171e-08)
(9.23772e-10 1.71257e-08 -4.61858e-08)
(-1.14006e-08 3.0345e-08 -4.1349e-08)
(-1.76845e-09 -2.56203e-10 -5.89693e-08)
(-1.13477e-09 -1.41442e-10 -4.59846e-08)
(-3.98475e-10 5.26772e-09 -8.85724e-08)
(-2.17643e-10 3.13775e-09 -8.8845e-08)
(4.27891e-08 -3.84952e-08 -1.16651e-07)
(2.4823e-10 -4.07597e-09 -1.19132e-07)
(-6.66779e-08 5.38253e-08 -1.79337e-07)
(6.49252e-08 4.90712e-08 -1.795e-07)
(-9.61684e-08 -7.99005e-08 -2.61639e-07)
(-1.43975e-10 6.77714e-09 -1.78423e-07)
(9.90614e-08 -8.43667e-08 -2.61344e-07)
(8.21115e-10 -9.09272e-09 -2.61214e-07)
(-1.47148e-07 1.20929e-07 -3.88763e-07)
(1.44014e-07 1.123e-07 -3.89004e-07)
(-2.05439e-07 -1.68484e-07 -5.53268e-07)
(1.38957e-10 1.39738e-08 -3.8548e-07)
(2.12505e-07 -1.78608e-07 -5.53589e-07)
(1.92969e-09 -1.71094e-08 -5.42672e-07)
(-3.01639e-07 2.49794e-07 -7.91597e-07)
(2.96365e-07 2.34371e-07 -7.92466e-07)
(-4.05425e-07 -3.33765e-07 -1.08593e-06)
(9.87317e-10 2.66135e-08 -7.73758e-07)
(4.20865e-07 -3.54806e-07 -1.08809e-06)
(4.15645e-09 -2.38977e-08 -1.04648e-06)
(-5.73524e-07 4.73911e-07 -1.49541e-06)
(5.65049e-07 4.47447e-07 -1.49798e-06)
(-7.38498e-07 -6.18552e-07 -1.97121e-06)
(3.02474e-09 4.67578e-08 -1.43659e-06)
(7.69651e-07 -6.59733e-07 -1.97827e-06)
(7.53751e-09 -1.02626e-08 -1.86743e-06)
(-1.01111e-06 8.22577e-07 -2.615e-06)
(9.97672e-07 7.83884e-07 -2.6238e-06)
(-1.23768e-06 -1.06568e-06 -3.30558e-06)
(7.28849e-09 7.73981e-08 -2.46496e-06)
(1.29418e-06 -1.14175e-06 -3.32694e-06)
(7.07051e-09 8.86953e-08 -3.08109e-06)
(-1.64211e-06 1.29415e-06 -4.21592e-06)
(1.61976e-06 1.26047e-06 -4.24448e-06)
(-1.87993e-06 -1.6733e-06 -5.12124e-06)
(1.26312e-08 1.2282e-07 -3.8879e-06)
(1.95671e-06 -1.78782e-06 -5.16712e-06)
(-1.38214e-08 4.61423e-07 -4.66662e-06)
(-2.41263e-06 1.81632e-06 -6.18164e-06)
(2.37849e-06 1.81594e-06 -6.23838e-06)
(-1.47597e-06 -2.25027e-07 -6.39836e-06)
(-4.01729e-09 8.48101e-08 -5.82515e-06)
(1.4631e-06 -2.82586e-07 -6.40255e-06)
(-1.07577e-07 6.31012e-06 -5.90559e-06)
(-2.65611e-07 -3.18383e-06 -6.63608e-06)
(-1.8899e-07 -3.2997e-06 -6.40596e-06)
(-3.27028e-07 4.73243e-06 -5.69427e-06)
(-3.07773e-06 1.25323e-06 -7.67051e-06)
(6.09509e-07 4.22562e-07 -4.90728e-06)
(3.47733e-07 -3.47787e-06 -6.23959e-06)
(-2.29628e-07 -8.49427e-07 -4.57362e-06)
(-4.57322e-07 -5.20975e-07 -4.37105e-06)
(-1.25205e-07 1.38964e-06 -5.14758e-06)
(-2.16824e-06 -1.46467e-06 -5.08913e-06)
(5.14812e-07 -2.84198e-08 -4.72608e-06)
(-1.02593e-06 8.08479e-08 -5.10259e-06)
(-1.30733e-06 -3.14696e-07 -5.16212e-06)
(-1.90586e-07 -3.43215e-07 -4.26827e-06)
(-3.86459e-07 -7.58234e-08 -3.42299e-06)
(-5.26249e-07 8.97392e-08 -3.36221e-06)
(-2.62818e-07 4.40064e-08 -2.01888e-06)
(-1.42664e-07 -2.43591e-08 -2.04705e-06)
(6.57212e-08 -5.1507e-08 -1.52016e-06)
(-7.24808e-08 -1.72941e-08 -1.13571e-06)
(-1.38498e-07 1.97624e-08 -1.12684e-06)
(-1.26961e-07 5.07838e-09 -1.11803e-06)
(-6.81667e-08 2.04041e-09 -5.82505e-07)
(-3.67616e-08 6.63748e-10 -2.83523e-07)
(-1.87672e-08 -2.61149e-11 -1.31995e-07)
(-5.71046e-09 -3.1806e-10 -6.43981e-08)
(1.0064e-08 -9.93372e-10 -4.47239e-08)
(8.8593e-09 -4.32229e-10 -2.82576e-08)
(9.27327e-09 9.5675e-09 -4.19588e-08)
(1.06304e-08 -9.62339e-09 -3.69975e-08)
(1.56744e-08 -4.60257e-11 -4.64549e-08)
(1.50558e-08 4.43494e-11 -4.70537e-08)
(9.92226e-09 -9.85747e-09 -3.98751e-08)
(1.00097e-08 9.67267e-09 -4.11872e-08)
(7.306e-09 -4.95494e-11 -5.04643e-08)
(-6.45679e-09 1.53269e-11 -3.61298e-08)
(1.89254e-09 -4.23228e-11 -4.42018e-08)
(-7.25553e-10 -7.40974e-10 -4.04615e-08)
(-4.96891e-10 -4.86227e-10 -4.02182e-08)
(1.72027e-09 1.72607e-09 -4.40314e-08)
(-5.62099e-09 -4.19292e-11 -3.48806e-08)
(-1.96041e-11 1.98125e-09 -4.4062e-08)
(2.6452e-12 -7.30674e-10 -4.03978e-08)
(-2.45902e-12 -8.98953e-10 -4.09274e-08)
(2.92576e-11 -1.22391e-10 -5.07945e-08)
(-3.58489e-09 3.42038e-09 -3.75448e-08)
(-4.23969e-09 -4.21564e-09 -3.80486e-08)
(-4.2412e-09 4.32613e-09 -3.79988e-08)
(-3.58897e-09 -3.3084e-09 -3.75552e-08)
(3.6371e-09 -3.38849e-09 -3.74648e-08)
(-2.7192e-09 -2.68993e-09 -3.69877e-08)
(2.22955e-10 2.18167e-10 -6.65529e-08)
(4.33863e-09 4.32076e-09 -3.79522e-08)
(-3.35896e-09 3.67773e-09 -3.75352e-08)
(-3.33806e-09 -3.58839e-09 -3.75384e-08)
(2.32045e-10 -1.26711e-10 -6.66224e-08)
(4.29027e-09 -4.26318e-09 -3.80002e-08)
(2.76925e-11 3.1222e-11 -5.14324e-08)
(6.4827e-11 7.26938e-11 -7.20547e-08)
(6.95965e-11 -1.52345e-10 -7.11838e-08)
(6.06705e-11 -1.21275e-09 -6.09523e-08)
(-3.58389e-10 -1.20059e-09 -6.05433e-08)
(-1.00271e-12 -2.56817e-09 -5.68964e-08)
(-2.31832e-10 -3.58766e-09 -1.21935e-07)
(-2.66641e-10 -7.84241e-09 -2.67697e-07)
(1.20176e-10 -1.38906e-08 -5.53893e-07)
(1.55488e-09 -2.00049e-08 -1.0619e-06)
(5.11468e-09 -1.84337e-08 -1.88181e-06)
(-1.99335e-09 -7.76433e-09 -1.79547e-06)
(-1.12842e-08 6.95793e-08 -1.59072e-06)
(-4.75185e-08 -2.02281e-07 -1.89972e-06)
(1.3315e-08 -9.25198e-08 -1.8362e-06)
(-2.52676e-08 -3.62735e-08 -1.74908e-06)
(1.19707e-07 5.03e-07 -1.81054e-06)
(-1.66498e-07 -6.60543e-07 -2.41471e-06)
(1.11244e-06 7.28166e-07 -2.74249e-06)
(-1.45706e-06 -9.23665e-07 -3.3927e-06)
(1.88326e-06 1.1994e-06 -4.56955e-06)
(-6.31392e-09 -6.38328e-08 -3.93763e-06)
(-5.31497e-07 -1.1451e-06 -3.8768e-06)
(-1.10537e-07 -7.6634e-08 -2.886e-06)
(1.4896e-07 9.20106e-07 -3.12931e-06)
(1.13954e-08 -3.36917e-08 -2.42554e-06)
(7.28495e-08 -1.15917e-07 -2.6446e-06)
(1.02366e-07 1.80005e-08 -2.6743e-06)
(-2.41744e-07 1.18657e-08 -1.99364e-06)
(-4.71094e-07 2.56723e-08 -3.29535e-06)
(-9.51902e-07 3.14407e-08 -5.0354e-06)
(-2.24811e-06 -3.04074e-08 -7.17727e-06)
(-2.31944e-06 -3.54338e-07 -7.18429e-06)
(-5.14089e-06 1.22442e-06 -7.27442e-06)
(-1.97763e-06 -5.98018e-07 -5.91667e-06)
(-1.6709e-06 -1.94653e-06 -5.3578e-06)
(-1.69673e-08 -3.20972e-07 -5.7607e-06)
(-6.36485e-07 -4.2207e-07 -6.5763e-06)
(6.3287e-07 -4.8871e-06 -5.73358e-06)
(-4.64919e-06 -1.3952e-06 -6.65862e-06)
(-2.85164e-06 1.82761e-07 -9.85535e-06)
(-1.40015e-06 -2.09552e-06 -8.88269e-06)
(2.0112e-06 1.50409e-06 -8.43817e-06)
(1.61589e-07 7.8139e-08 -8.75203e-06)
(8.19997e-08 6.32372e-08 -5.48785e-06)
(-2.03868e-06 1.81505e-06 -7.04424e-06)
(2.14578e-06 1.51841e-06 -7.37319e-06)
(1.56465e-08 1.8909e-07 -8.91587e-06)
(-2.68902e-07 -1.75492e-07 -5.62657e-06)
(-2.22008e-06 1.98791e-06 -7.26443e-06)
(2.15044e-06 1.78935e-06 -7.39868e-06)
(4.31334e-09 1.98928e-07 -8.95795e-06)
(-2.97369e-07 -2.09323e-07 -5.65172e-06)
(-2.16915e-06 1.81105e-06 -7.17486e-06)
(2.14355e-06 2.03412e-06 -7.49612e-06)
(1.60491e-08 1.85988e-07 -8.94739e-06)
(-4.74971e-07 -4.65899e-07 -5.80133e-06)
(-2.07208e-06 1.51391e-06 -7.12826e-06)
(1.53053e-06 2.05527e-06 -8.01582e-06)
(-1.34902e-06 -7.40758e-07 -1.11869e-05)
(1.19332e-06 1.22843e-06 -9.12275e-06)
(9.11685e-07 -1.06327e-06 -8.9307e-06)
(2.55303e-06 1.13989e-06 -1.13592e-05)
(-1.2016e-06 -4.45424e-06 -1.1187e-05)
(-6.60778e-07 -2.40134e-06 -8.80404e-06)
(3.73124e-07 3.70569e-07 -6.35716e-06)
(1.41944e-06 -1.10125e-06 -8.84566e-06)
(-4.21528e-06 2.02316e-06 -7.60981e-06)
(-1.96514e-07 -1.28275e-07 -6.60128e-06)
(-2.44047e-06 -3.26501e-06 -7.16495e-06)
(2.45319e-06 1.9387e-06 -7.88088e-06)
(2.39137e-06 -3.48465e-08 -6.3267e-06)
(2.17012e-06 -2.28116e-06 -8.19724e-06)
(2.74927e-06 -2.27583e-06 -9.47496e-06)
(1.18237e-06 -3.25599e-06 -6.24735e-06)
(1.61134e-07 1.01473e-06 -7.09673e-06)
(9.77092e-07 -1.67585e-06 -5.8941e-06)
(1.4083e-06 -1.14335e-06 -6.11764e-06)
(2.17439e-06 1.69698e-06 -7.64277e-06)
(-6.62939e-07 -2.79339e-06 -6.19656e-06)
(1.8355e-07 -4.57344e-07 -4.48499e-06)
(1.15306e-06 1.68714e-06 -5.27507e-06)
(-6.41554e-07 -1.57976e-06 -4.20713e-06)
(1.49368e-08 -1.61885e-07 -2.97688e-06)
(6.53388e-07 1.13771e-06 -3.31945e-06)
(-4.02822e-07 -8.76034e-07 -2.60879e-06)
(3.12404e-09 -8.23916e-08 -1.79669e-06)
(3.77887e-07 6.74553e-07 -1.95235e-06)
(-2.18494e-07 -4.76426e-07 -1.49407e-06)
(3.3166e-09 -5.06916e-08 -1.0073e-06)
(2.0865e-07 3.68215e-07 -1.0682e-06)
(-1.10928e-07 -2.47111e-07 -7.91628e-07)
(2.3357e-09 -2.94661e-08 -5.21524e-07)
(1.07378e-07 1.87214e-07 -5.41877e-07)
(-5.30631e-08 -1.19598e-07 -3.87615e-07)
(9.90066e-10 -1.47154e-08 -2.5026e-07)
(5.03758e-08 8.89607e-08 -2.54104e-07)
(-2.53323e-08 -5.38595e-08 -1.76581e-07)
(-7.19994e-10 -4.98021e-09 -1.10178e-07)
(2.05013e-08 4.1156e-08 -1.1269e-07)