/*--------------------------------*- C++ -*----------------------------------*\
| =========                 |                                                 |
| \\      /  F ield         | OpenFOAM: The Open Source CFD Toolbox           |
|  \\    /   O peration     | Version:  2306                                  |
|   \\  /    A nd           | Website:  www.openfoam.com                      |
|    \\/     M anipulation  |                                                 |
\*---------------------------------------------------------------------------*/
FoamFile
{
    version     2.0;
    format      ascii;
    arch        "LSB;label=32;scalar=64";
    class       volVectorField;
    location    "1.1";
    object      flux;
}
// * * * * * * * * * * * * * * * * * * * * * * * * * * * * * * * * * * * * * //

dimensions      [0 1 -1 1 0 0 0];

internalField   nonuniform List<vector> 
5322
(
(-0.0010051 0.00259611 -0.00348202)
(2.32554e-05 0.000244768 -0.00354989)
(2.82968e-05 -1.63823e-05 -0.0036568)
(3.12383e-06 -0.000107122 -0.00396399)
(-5.76128e-07 -5.85655e-05 -0.00392355)
(-7.2679e-07 -1.98581e-05 -0.00390345)
(-2.42682e-08 5.17586e-07 -0.00389224)
(4.81837e-07 2.00639e-05 -0.00388873)
(2.78883e-07 5.65635e-05 -0.00389458)
(-8.4526e-07 0.000102244 -0.00392254)
(-3.98217e-06 1.16217e-06 -0.00387555)
(4.32478e-05 -0.000757344 -0.00388575)
(6.66225e-05 -0.00084162 -0.00292409)
(-0.000917738 -0.000755452 -0.00403148)
(-2.43112e-05 -0.000655833 -0.00440839)
(0.00159735 0.00141944 -0.00351935)
(-0.00125519 0.00189859 -0.00416008)
(-1.97784e-05 -3.01272e-06 -0.00311471)
(-0.000957782 0.00131128 -0.00438588)
(0.000617746 -0.00155514 -0.00442709)
(-0.000839883 0.00147949 -0.00445694)
(0.000731151 -0.00150391 -0.00443894)
(-0.000773367 0.00147596 -0.00444395)
(0.000778515 -0.0015118 -0.0044702)
(-0.000788662 0.00150749 -0.00447365)
(0.000758724 -0.00148035 -0.00445245)
(-0.00076039 0.00147999 -0.00445848)
(0.000790214 -0.00151268 -0.00448335)
(-0.000778533 0.00150974 -0.00449014)
(0.000780279 -0.00149327 -0.00447247)
(-0.000740432 0.00150394 -0.00447729)
(0.000842956 -0.00150613 -0.00449072)
(-0.000633189 0.00155676 -0.00446583)
(0.000967235 -0.00133931 -0.00439942)
(1.45126e-05 0.00128582 -0.00418813)
(0.0012162 -0.000643808 -0.00344144)
(0.000857486 0.00126524 -0.00391639)
(-0.00034198 0.0015876 -0.00398972)
(0.000960915 0.000793117 -0.00411824)
(-5.52301e-05 0.000859136 -0.00290176)
(-0.000911389 0.00117172 -0.0038296)
(0.000916428 0.000978699 -0.00395222)
(-5.54848e-05 0.00101352 -0.00284968)
(-0.000975026 0.00109373 -0.00395801)
(0.000969011 0.00104276 -0.00391931)
(-3.33159e-05 0.001033 -0.00289705)
(-0.00103632 0.00105939 -0.00401288)
(0.00090516 0.00113178 -0.00378799)
(-2.28275e-05 0.00104919 -0.00285859)
(-0.00108617 0.00100147 -0.00392381)
(-0.00107166 0.00125646 -0.00439573)
(-0.00155612 0.00060773 -0.00315192)
(-0.000486433 0.000680689 -0.00429092)
(0.00104282 -0.00224184 -0.00402825)
(-6.64888e-05 -0.000122171 -0.00377456)
(-0.00172172 -0.00129708 -0.0038296)
(-4.89323e-05 0.000682169 -0.00454534)
(0.0016454 -0.00170091 -0.00377008)
(-1.97226e-05 -9.66277e-05 -0.00381365)
(-0.00164415 -0.00147827 -0.00383348)
(-7.07681e-06 0.000692668 -0.00460066)
(0.00160239 -0.00167269 -0.00382087)
(-9.24871e-06 -8.62689e-05 -0.00381518)
(-0.00161495 -0.0014673 -0.00373896)
(-5.73567e-07 0.000695459 -0.00459747)
(0.00157786 -0.001731 -0.00394941)
(2.00526e-05 -0.00011119 -0.00379705)
(-0.00159935 -0.00141911 -0.00355112)
(6.90078e-05 0.000701966 -0.00448857)
(0.00130979 -0.00190463 -0.0041931)
(5.22655e-05 6.69068e-05 -0.00314529)
(-0.0013964 0.00167121 -0.00489845)
(0.00158219 0.000930829 -0.00466518)
(-0.00163751 0.00130046 -0.00459883)
(0.00157633 0.00097136 -0.00464761)
(-0.00160527 0.0012303 -0.004625)
(0.0016084 0.00102658 -0.00462261)
(-0.00160506 0.00122489 -0.00460638)
(0.00182724 0.00104008 -0.0046666)
(-0.00131671 0.00143914 -0.0044189)
(0.000644929 0.000130793 -0.00420467)
(-0.000853523 0.00048476 -0.00323404)
(-0.000552219 0.000732368 -0.00335224)
(0.000957556 0.00121843 -0.00452856)
(9.92884e-05 -0.000103447 -0.00308649)
(-0.000541362 -0.000508285 -0.00410505)
(0.000634982 0.000145014 -0.00554523)
(-0.00171023 0.000285063 -0.00338998)
(-0.000644067 0.000529043 -0.00347432)
(0.00203634 6.08883e-05 -0.00312079)
(-8.75873e-05 0.000138512 -0.00394533)
(3.79042e-05 2.55768e-05 -0.00351921)
(6.9895e-05 4.02397e-06 -0.00371305)
(0.000316576 4.72151e-06 -0.00368391)
(0.00145717 0.00176974 -0.00447515)
(-0.000338316 -0.000945652 -0.00387986)
(-4.07724e-05 2.85095e-05 -0.00386417)
(-0.000166424 0.00095343 -0.0039355)
(0.000654693 2.59133e-05 -0.00564349)
(-0.00151643 -2.517e-05 -0.00329918)
(-0.00151799 0.000130511 -0.00332702)
(0.00338843 2.55202e-05 -0.00317168)
(-0.000163634 0.0010096 -0.00396532)
(0.00112398 -0.0017254 -0.00442256)
(0.00182955 0.00154402 -0.00481122)
(-2.21277e-05 2.09513e-05 -0.0037502)
(1.11378e-05 -2.95807e-05 -0.00397815)
(1.51071e-05 -5.49667e-06 -0.0039823)
(9.14022e-06 -8.89745e-07 -0.00395969)
(4.46379e-06 1.67045e-06 -0.0039562)
(1.76405e-06 1.89293e-06 -0.00394964)
(-4.76637e-07 2.30577e-06 -0.0039415)
(-4.64215e-06 5.21954e-06 -0.00393161)
(-1.13853e-05 1.04493e-05 -0.00394123)
(1.79112e-05 -1.77148e-05 -0.00453526)
(-6.03954e-06 4.64707e-06 -0.00449044)
(-0.000527372 0.000539835 -0.00314254)
(-0.000520324 -0.00022203 -0.00340526)
(5.50994e-05 -7.63103e-05 -0.00453615)
(0.000331641 -0.000416636 -0.00375301)
(1.88339e-05 0.000512423 -0.00332653)
(0.000505923 -0.000285162 -0.00404589)
(-0.000605136 -0.00055569 -0.00398918)
(-4.53301e-05 -0.000760153 -0.00562003)
(-0.000139388 -0.000858988 -0.00418649)
(0.000938126 -3.46104e-05 -0.00550307)
(0.000771694 0.000629614 -0.00395125)
(0.00021459 -0.000475108 -0.00412587)
(0.000603379 4.4517e-05 -0.0054086)
(0.000390032 0.000518885 -0.00393455)
(0.000296587 -0.000516827 -0.00403805)
(0.000647813 2.17705e-05 -0.00545742)
(0.000327057 0.000539404 -0.0039955)
(0.000350879 -0.000553078 -0.00396285)
(0.000659091 -1.74678e-05 -0.00548238)
(0.000286326 0.000503767 -0.00405202)
(0.000552186 -0.000604296 -0.00398744)
(0.000749215 -4.81077e-05 -0.00562895)
(0.000849317 -0.000139482 -0.0041896)
(3.64932e-05 0.000925179 -0.0055035)
(-0.000622548 0.000766464 -0.0039611)
(3.43257e-05 -0.000502349 -0.00333787)
(0.000414742 0.000333081 -0.0037534)
(-0.000502441 0.00025891 -0.00335761)
(-0.000539067 -0.000529567 -0.00314838)
(7.70851e-05 5.70951e-05 -0.0045367)
(0.00022274 -0.000518859 -0.00340542)
(0.000122557 0.000407007 -0.00338149)
(-0.000421888 0.000418281 -0.00310659)
(-0.000463687 -0.00046121 -0.00312706)
(8.6782e-05 -6.96969e-06 -0.00452775)
(0.000138111 -0.000430372 -0.00338611)
(0.000166458 0.000431963 -0.00337303)
(-0.000457567 0.000466271 -0.00310836)
(-0.000434141 -0.000418878 -0.00313456)
(8.75012e-05 -1.41044e-06 -0.00452657)
(9.07925e-05 -0.000400372 -0.0033929)
(0.00026356 0.000508266 -0.00335601)
(-0.000502176 -3.31486e-05 -0.0033367)
(0.000655246 -2.50688e-05 -0.00440772)
(-0.00141257 0.00159733 -0.00351418)
(-0.00189339 -0.0012519 -0.00416553)
(0.00163225 0.00138455 -0.00484491)
(-0.00191183 -0.00147073 -0.00473684)
(-8.00699e-05 4.97033e-05 -0.0030046)
(-0.00131509 -0.000948736 -0.00438672)
(1.06327e-05 -2.02751e-05 -0.003115)
(0.00128193 -8.57515e-06 -0.00421898)
(-0.000307859 -0.000177516 -0.00288847)
(0.00152761 0.000458245 -0.00390625)
(0.000757254 -0.000916895 -0.00403636)
(0.0011292 0.000912245 -0.00374942)
(-0.00169246 -0.00153152 -0.00388301)
(0.000660377 3.49211e-06 -0.00450658)
(-0.0014583 0.00156427 -0.00370719)
(0.000970388 -0.00154571 -0.00456654)
(0.00126513 0.00160927 -0.0045346)
(-0.00154777 -0.00164512 -0.00438068)
(3.48297e-05 6.84094e-06 -0.00366056)
(-0.0013159 0.0016207 -0.00437308)
(0.00115868 -0.00166112 -0.00447792)
(0.00144227 0.00172289 -0.00448714)
(-0.00153346 -0.00171849 -0.0044485)
(-9.31904e-06 6.39367e-06 -0.00372086)
(-0.00128524 0.00168033 -0.0044536)
(0.00122397 -0.00169285 -0.00447026)
(0.00149532 0.00174742 -0.00447593)
(-0.00153357 -0.00174137 -0.00446401)
(-2.75067e-06 3.92874e-06 -0.00373876)
(-0.00127969 0.00170083 -0.00446811)
(0.00124756 -0.00170644 -0.00447698)
(0.00151511 0.00175793 -0.00448087)
(-0.00154492 -0.00175195 -0.00447161)
(5.91798e-07 3.3184e-06 -0.00375021)
(-0.00128974 0.00171172 -0.00447733)
(0.00124786 -0.00171885 -0.00448757)
(0.00152098 0.00177026 -0.00449351)
(-0.00157051 -0.00175851 -0.00447528)
(2.17452e-06 4.32171e-06 -0.00376172)
(-0.00131444 0.00171852 -0.00448441)
(0.00123026 -0.00173325 -0.00450165)
(0.00151621 0.00178589 -0.00451179)
(-0.00160864 -0.00175829 -0.00447618)
(4.57085e-06 5.69981e-06 -0.00377263)
(-0.00134558 0.00171584 -0.00448921)
(0.00119372 -0.00174241 -0.00451066)
(0.00149879 0.00179488 -0.00452603)
(-0.00164007 -0.00172635 -0.00448062)
(1.0256e-05 7.33916e-06 -0.00376967)
(-0.00135579 0.0016769 -0.00449917)
(0.00112396 -0.00172866 -0.00444241)
(0.00140311 0.00174309 -0.00445704)
(-0.000305823 -0.00094554 -0.00392667)
(0.000625473 -4.26274e-06 -0.00564661)
(-0.00150521 -7.00486e-05 -0.00330042)
(-0.00153499 2.92338e-05 -0.00328875)
(0.0034092 -2.81503e-05 -0.00318261)
(-0.00011748 -1.72723e-06 -0.00448125)
(-0.000128678 1.10654e-05 -0.00446898)
(7.82229e-05 1.46903e-05 -0.00371335)
(0.000341716 7.68342e-08 -0.00368494)
(0.00144778 0.00177358 -0.00446142)
(-0.000266938 -0.000941213 -0.00391068)
(-2.59685e-05 7.93786e-06 -0.00381694)
(-0.000297736 0.00112216 -0.00396063)
(0.00059585 -0.000152636 -0.00562677)
(-0.00153362 -4.51054e-05 -0.00331808)
(-0.00150846 3.73015e-05 -0.0032881)
(0.00338966 -5.53151e-05 -0.00318849)
(-0.000197356 0.000950603 -0.00391237)
(0.00112427 -0.00174651 -0.00444778)
(-4.204e-05 1.01498e-05 -0.0038627)
(1.8737e-05 7.78392e-06 -0.00390747)
(1.81228e-05 2.1865e-05 -0.00397541)
(1.16435e-05 1.41276e-05 -0.003959)
(6.0493e-06 7.53199e-06 -0.00395793)
(2.62089e-06 3.38378e-06 -0.00395122)
(-6.60171e-09 2.40121e-07 -0.00394247)
(-4.28523e-06 -4.60587e-06 -0.00393201)
(-1.03408e-05 -1.16141e-05 -0.00394109)
(1.78763e-05 1.72805e-05 -0.00453506)
(-5.53438e-06 -6.21476e-06 -0.00449155)
(0.000419073 -0.000434567 -0.0031287)
(-0.000465154 -0.000462866 -0.00311902)
(0.000463524 -0.000463075 -0.0031166)
(-0.000421029 -0.000435573 -0.0031285)
(8.42503e-07 8.90038e-05 -0.00452602)
(0.000421478 0.000153344 -0.00337278)
(-0.000398337 9.66713e-05 -0.00339173)
(-2.23884e-06 -0.000585172 -0.00341233)
(-0.00050169 0.000306898 -0.00403703)
(2.80695e-07 -0.000620515 -0.00567146)
(-0.000421572 0.000153702 -0.00337372)
(-3.18417e-07 8.91791e-05 -0.00452619)
(0.000397311 9.68591e-05 -0.00339069)
(1.5627e-05 -0.000613241 -0.00563966)
(0.000468557 0.000213536 -0.00411357)
(-3.82619e-05 0.000586753 -0.00539045)
(-0.000506592 0.000378767 -0.00393177)
(1.6592e-06 -0.000584937 -0.00341315)
(0.000500993 0.000307532 -0.00403666)
(-5.13681e-07 0.000636952 -0.00539163)
(-7.97031e-08 0.000889396 -0.00287857)
(0.00088744 0.000939388 -0.0038673)
(-0.00152555 -0.00153887 -0.00370947)
(0.00152373 -0.00153538 -0.00370517)
(-0.00150708 -0.00165246 -0.00388419)
(0.00158683 0.00119906 -0.00453128)
(-0.00162397 -0.00148794 -0.00438144)
(0.00169902 0.00136611 -0.00448445)
(-0.00169473 -0.00146341 -0.0044486)
(0.00172281 0.00141635 -0.00447465)
(-0.00171678 -0.00145964 -0.00446355)
(0.00173315 0.00143593 -0.00448054)
(-0.00172734 -0.00146888 -0.0044713)
(0.00174549 0.00144215 -0.00449413)
(-0.00173376 -0.00149307 -0.00447495)
(0.00176141 0.00143892 -0.00451404)
(-0.0017337 -0.00153178 -0.00447482)
(0.00177206 0.00142736 -0.00453112)
(-0.00170367 -0.00156944 -0.004476)
(0.00175033 0.00140077 -0.004485)
(-0.000938656 -0.000307905 -0.00387633)
(1.9775e-05 0.000666634 -0.00564421)
(0.000947478 -0.000210827 -0.00395062)
(2.55508e-05 -3.59634e-05 -0.00386276)
(-0.0017075 0.00121273 -0.00443206)
(0.00165814 -0.00144528 -0.00450994)
(8.60971e-06 1.46081e-05 -0.00377163)
(-0.00172128 0.0012943 -0.00450922)
(0.00169423 -0.00144677 -0.00449474)
(5.8427e-06 6.87764e-06 -0.00377436)
(-0.00171203 0.00133452 -0.00450357)
(0.00169595 -0.00141821 -0.00448659)
(3.87119e-06 3.34532e-06 -0.00376295)
(-0.00169768 0.00135152 -0.00449028)
(0.00168882 -0.00139294 -0.0044777)
(2.68454e-06 1.02237e-06 -0.00375091)
(-0.00168535 0.00134949 -0.00447979)
(0.00167791 -0.00138099 -0.00446729)
(2.78651e-06 -2.91578e-06 -0.00373903)
(-0.00167213 0.00132449 -0.00447408)
(0.00165777 -0.00138239 -0.00445102)
(4.45953e-06 -1.00257e-05 -0.00372079)
(-0.00164162 0.00125527 -0.00448413)
(0.0015979 -0.00140483 -0.00436839)
(5.0652e-06 3.30234e-05 -0.00365955)
(-0.00152584 0.00105067 -0.00457276)
(9.01191e-07 -9.70194e-05 -0.00375052)
(0.00152533 0.00104975 -0.00456763)
(-0.00159889 -0.00140711 -0.00437331)
(-7.17142e-06 3.30862e-05 -0.00365958)
(-0.00158447 0.00120533 -0.0045359)
(0.0015048 -0.00164294 -0.00388324)
(-2.82313e-06 0.000659342 -0.00450556)
(-0.000895001 0.00109017 -0.00374128)
(-5.81483e-05 0.000814807 -0.00291366)
(0.000910392 0.000762654 -0.00404505)
(-0.00157989 -0.0014494 -0.00352007)
(0.0015258 0.000951065 -0.00458732)
(-0.00160722 -0.00135351 -0.0043903)
(0.00161525 0.0011976 -0.00447591)
(-0.00164497 -0.00132745 -0.00447451)
(0.00164418 0.00127296 -0.00447205)
(-0.00165292 -0.00132534 -0.00448012)
(0.00165858 0.00129867 -0.00448384)
(-0.00165772 -0.00133806 -0.00448359)
(0.0016758 0.00130328 -0.0045)
(-0.00166064 -0.00136872 -0.00448497)
(0.00170089 0.00129628 -0.00452737)
(-0.00165165 -0.00140548 -0.00446967)
(0.00172625 0.0012773 -0.00456069)
(-0.00159758 -0.00139547 -0.00443387)
(0.0017175 0.00122075 -0.00449642)
(-0.000924996 -0.000200803 -0.00389752)
(-0.000198832 0.000482596 -0.00556214)
(0.000402183 -0.000550418 -0.00411489)
(5.06955e-05 -9.68569e-06 -0.00372208)
(-0.00159415 0.00167353 -0.00477289)
(0.00143306 -0.00204452 -0.00484233)
(2.00209e-05 3.58538e-05 -0.00364976)
(-0.00156687 0.00183421 -0.00484594)
(0.00151278 -0.0019932 -0.00482069)
(2.81449e-06 1.82017e-05 -0.00365448)
(-0.00151579 0.00186387 -0.00483112)
(0.00150806 -0.00191828 -0.00480406)
(-1.91668e-06 7.26981e-06 -0.00363947)
(-0.00149431 0.00186089 -0.00480795)
(0.0014946 -0.00187871 -0.00479199)
(-2.66893e-06 2.01308e-06 -0.00362671)
(-0.00148657 0.00185724 -0.00479622)
(0.00148932 -0.00186505 -0.00478703)
(-7.62046e-06 -3.33852e-06 -0.00361755)
(-0.00148011 0.00185143 -0.0047913)
(0.0014898 -0.00186243 -0.00478009)
(-1.92096e-05 -7.45593e-06 -0.00360556)
(-0.00145824 0.00181858 -0.00480517)
(0.00146889 -0.00187705 -0.00473849)
(-4.42827e-05 4.20188e-05 -0.00355239)
(-0.00135649 0.00161598 -0.00484419)
(0.0012418 -0.00186801 -0.00416472)
(2.67709e-05 0.000655434 -0.00440623)
(-0.000449979 0.00152273 -0.00390486)
(0.000765847 0.00135317 -0.00412533)
(0.00125936 -0.000679375 -0.0035993)
(4.00695e-05 0.00129034 -0.00423274)
(0.000156721 -0.000306273 -0.00288029)
(-0.000230219 0.000243066 -0.00328737)
(0.000644422 0.00154598 -0.00373959)
(-0.00198775 -0.00133799 -0.00343296)
(0.0015086 0.00124861 -0.00469431)
(-0.00189225 -0.00117587 -0.00457297)
(-0.0012742 0.0018835 -0.00440555)
(-0.00157546 -0.00165829 -0.00437585)
(4.10792e-05 -1.31155e-05 -0.00365055)
(0.00103718 -0.00185535 -0.00453697)
(0.00114717 0.00158257 -0.0046029)
(-0.0016512 -0.00161861 -0.00357313)
(0.000638517 4.75594e-05 -0.00452476)
(-0.00148185 0.00170415 -0.00397457)
(-0.000110133 7.60922e-05 -0.00378044)
(7.93797e-05 3.30008e-05 -0.00371598)
(-0.000599776 -0.000482218 -0.00547613)
(5.1318e-05 4.72889e-05 -0.00441849)
(-2.42161e-05 -3.87173e-05 -0.00418906)
(-0.00063631 2.53062e-05 -0.00562246)
(6.48448e-05 -9.23841e-06 -0.0040312)
(-0.000102781 -3.29814e-06 -0.00375816)
(-0.00150352 0.00155803 -0.00383778)
(-0.00163065 -0.00156107 -0.00372982)
(0.00117677 0.00156254 -0.00457248)
(-0.00152637 -0.00162483 -0.00436831)
(1.95002e-05 2.67637e-07 -0.00369995)
(0.00139322 0.00167701 -0.00448732)
(-0.00151943 -0.00168859 -0.00445098)
(0.00146827 0.00170901 -0.00447645)
(-0.00152268 -0.0017097 -0.00446744)
(1.05126e-05 1.20032e-06 -0.00368733)
(0.00149767 0.00172419 -0.00448345)
(-0.00153657 -0.00171921 -0.00447534)
(0.00150546 0.00173959 -0.0044971)
(-0.001564 -0.00172326 -0.0044787)
(5.81445e-05 1.42661e-06 -0.00369169)
(0.00149798 0.00175724 -0.00451572)
(-0.00159646 -0.00171711 -0.00447762)
(0.00147134 0.00176608 -0.00452762)
(-0.00160498 -0.00167778 -0.00448361)
(0.000331532 -2.71924e-06 -0.0036889)
(7.73197e-05 2.296e-06 -0.00371731)
(4.93873e-05 3.79587e-06 -0.00371354)
(5.19896e-05 1.26499e-05 -0.00371392)
(2.48202e-05 7.10153e-06 -0.00371225)
(6.11138e-05 4.62136e-06 -0.00369853)
(0.00154838 0.00177307 -0.00453029)
(-0.00163819 -0.00171461 -0.00447802)
(1.32015e-05 9.05783e-06 -0.00376713)
(-0.00132874 0.00202775 -0.00451666)
(0.00109623 -0.00200555 -0.00447733)
(0.00152821 0.00179654 -0.00455192)
(-0.0016109 -0.00166083 -0.00445995)
(2.94422e-05 1.74267e-05 -0.00375705)
(-0.00141437 0.00201742 -0.00454481)
(0.000984727 -0.00191989 -0.00436955)
(0.00196815 0.00122368 -0.00486574)
(-0.000231019 -0.000852143 -0.00374005)
(3.77322e-05 -0.0013635 -0.0055176)
(-0.00164597 -9.27768e-05 -0.003355)
(-0.00151905 -2.0737e-05 -0.00320983)
(0.00320859 -0.00049282 -0.00326192)
(-0.000199354 -0.000126684 -0.00431465)
(5.31525e-05 3.79759e-05 -0.00349411)
(8.95084e-05 0.000904699 -0.00311098)
(-0.00097662 0.00118014 -0.00454367)
(0.000223186 9.39559e-05 -0.00304113)
(0.000765927 -0.00191938 -0.00436959)
(-0.000792746 0.00145683 -0.00452521)
(6.50656e-05 1.43509e-05 -0.00302962)
(0.000820347 -0.00162386 -0.00445171)
(-0.000744037 0.00148294 -0.00448932)
(1.02846e-05 -3.35818e-06 -0.00301593)
(0.000797019 -0.00152476 -0.00447722)
(-0.000761965 0.00149918 -0.00448203)
(-1.41631e-06 5.52889e-07 -0.00300859)
(0.000760887 -0.00147021 -0.0044558)
(-0.000738368 0.00149156 -0.00444663)
(-1.96806e-05 -1.06049e-05 -0.00300586)
(0.000790926 -0.00146698 -0.00446644)
(-0.00071322 0.00154767 -0.00444038)
(-4.83499e-05 -2.65478e-05 -0.00300755)
(0.000833269 -0.0013975 -0.00445191)
(-0.000560676 0.00157893 -0.00440363)
(-8.08396e-05 -9.92894e-05 -0.00300276)
(0.000984519 -0.00124595 -0.00440918)
(0.000373805 0.00040433 -0.0033784)
(0.000276447 0.000607941 -0.00325725)
(-7.26604e-05 -0.000749935 -0.00405837)
(-3.78174e-05 6.26239e-06 -0.00354372)
(0.000387769 0.00122527 -0.00394992)
(-0.000170479 -0.00104341 -0.00409787)
(0.00174718 0.00122452 -0.0045692)
(-0.00186758 -0.00119776 -0.00461904)
(0.0018262 0.00121697 -0.00458021)
(-0.00186597 -0.00120497 -0.00461015)
(-0.00120806 0.0019606 -0.00447068)
(-0.00156652 -0.00171853 -0.0044798)
(-3.36178e-06 -4.0517e-06 -0.00373119)
(0.00119495 -0.00196403 -0.00448404)
(0.0015077 0.00171154 -0.00448134)
(-0.00156339 -0.00170545 -0.00446834)
(-8.38193e-06 -1.02319e-05 -0.00371576)
(-0.00121136 0.00194058 -0.00445495)
(1.00873e-05 -5.46863e-08 -0.00369566)
(8.5815e-07 -4.41282e-06 -0.00349671)
(1.31754e-05 -2.87272e-06 -0.00350529)
(-1.30931e-06 -0.000112347 -0.00311632)
(2.58247e-05 2.50563e-05 -0.00363372)
(0.000100188 0.000156706 -0.00352707)
(9.26783e-05 0.000170312 -0.00338355)
(0.000168158 6.93469e-05 -0.00394457)
(-4.97678e-05 2.98033e-05 -0.00391604)
(2.63861e-05 9.81595e-05 -0.00387337)
(0.000701097 6.94948e-05 -0.00390846)
(0.00111384 -8.94373e-05 -0.00303489)
(0.000928964 0.00144832 -0.00494544)
(0.000314011 0.000464305 -0.00273908)
(0.00141257 0.00010095 -0.00367725)
(0.000562236 0.000346643 -0.00390464)
(0.000263886 7.39202e-05 -0.00381689)
(7.89707e-05 2.20834e-05 -0.00383578)
(4.99422e-05 1.54108e-05 -0.0039486)
(-2.36161e-05 5.30706e-06 -0.00388921)
(-1.5637e-05 3.06872e-06 -0.00388259)
(1.39139e-05 3.93537e-06 -0.00395981)
(2.40641e-05 3.72069e-06 -0.00384005)
(-0.000222008 -0.00110202 -0.00409876)
(-3.32021e-06 1.05334e-06 -0.00360416)
(0.000256302 0.00112529 -0.0040585)
(-0.000236611 -0.00111351 -0.00407554)
(0.00185201 0.00121564 -0.00460544)
(-0.00187758 -0.00121021 -0.00460438)
(0.00186647 0.00122981 -0.00462591)
(-0.00191808 -0.00121483 -0.00460029)
(-0.00125808 0.00199739 -0.00449565)
(-0.00161097 -0.00172644 -0.00448727)
(4.88615e-06 3.22232e-06 -0.00375525)
(0.0011893 -0.00198026 -0.00449421)
(0.00155139 0.00174696 -0.00450585)
(-0.00158184 -0.00172483 -0.00448524)
(9.3089e-07 -2.20595e-07 -0.00374251)
(-0.00122232 0.00197544 -0.00448296)
(1.75507e-05 3.90519e-06 -0.00369789)
(7.79554e-06 3.88236e-06 -0.00350717)
(1.92227e-06 -5.34872e-07 -0.00350036)
(1.26429e-06 -1.129e-05 -0.00310949)
(3.14928e-06 -6.3069e-06 -0.00363022)
(6.06053e-06 1.66517e-05 -0.0035905)
(9.54781e-06 1.2074e-05 -0.0034374)
(7.54987e-06 1.61866e-06 -0.00362476)
(2.07023e-05 5.27539e-05 -0.00350524)
(3.14868e-05 3.78289e-05 -0.0033655)
(0.000301015 0.00114832 -0.00404241)
(-5.1756e-06 5.49199e-06 -0.00359615)
(-2.03448e-06 -5.27742e-05 -0.00310863)
(-9.63113e-06 -4.21705e-06 -0.00391987)
(1.70708e-06 -7.73207e-05 -0.00393605)
(4.03606e-06 9.67218e-06 -0.00388992)
(-3.96638e-05 0.000762125 -0.0038883)
(9.2111e-05 0.0014552 -0.00366905)
(-0.00106176 0.00267488 -0.00356152)
(-2.69447e-06 0.000280245 -0.00353707)
(1.45698e-05 -4.05963e-05 -0.00310712)
(7.13333e-07 -1.86905e-05 -0.00387359)
(-1.43611e-05 -7.24084e-05 -0.00382315)
(0.00162425 -0.00147852 -0.00437898)
(-2.41515e-07 6.36179e-06 -0.00369435)
(-0.00169828 0.00137638 -0.00448798)
(0.00164146 0.00125271 -0.00448009)
(-0.00165788 -0.0013831 -0.00445466)
(-5.8156e-06 -9.94256e-06 -0.00372143)
(0.00169723 -0.00145803 -0.00444732)
(6.28635e-08 1.06093e-05 -0.00368066)
(-0.00172253 0.0014252 -0.00447666)
(0.00167338 0.00132232 -0.00447212)
(-0.00167669 -0.00138029 -0.00446859)
(-2.40892e-06 -2.76469e-06 -0.00374003)
(0.00172096 -0.00145958 -0.00446462)
(1.03095e-06 9.11562e-06 -0.00367963)
(-0.00173226 0.00143995 -0.0044809)
(0.00168867 0.00134944 -0.00448115)
(-0.00168553 -0.00139168 -0.00447558)
(1.39865e-07 1.27063e-06 -0.00375239)
(0.0017338 -0.00147453 -0.0044752)
(1.92953e-06 2.4677e-05 -0.00368185)
(-0.00174387 0.00143856 -0.00449205)
(0.00170389 0.00135576 -0.00449628)
(-0.00168954 -0.00141787 -0.00447847)
(2.58439e-06 3.84743e-06 -0.00376497)
(0.00174362 -0.00150654 -0.00448349)
(1.62641e-06 7.00227e-05 -0.00368339)
(-0.00175848 0.00141848 -0.00450499)
(0.00172166 0.00134874 -0.00451805)
(-0.00168348 -0.00145241 -0.00447461)
(6.1843e-06 7.72942e-06 -0.00377631)
(0.00174524 -0.00155077 -0.00449209)
(-3.27967e-06 0.000171329 -0.00368254)
(-0.00176488 0.00136829 -0.00450524)
(0.00173204 0.00133029 -0.00453611)
(-0.00164525 -0.00147132 -0.00447355)
(9.81069e-06 1.59261e-05 -0.00377036)
(0.00170487 -0.00156927 -0.00450562)
(-1.50054e-05 0.000383622 -0.0036711)
(-0.00173594 0.00128352 -0.00443074)
(0.0017114 0.00128343 -0.00447327)
(-0.000940056 -0.000246537 -0.00392032)
(-1.14693e-06 -3.49362e-05 -0.00385583)
(0.000933455 -0.000285582 -0.00392097)
(-5.7341e-05 0.00338562 -0.00320231)
(-0.000119482 -0.001514 -0.00330089)
(-0.000125145 -0.00154611 -0.00317223)
(-0.00013124 0.00250162 -0.00300384)
(-0.00163999 0.000650487 -0.00430187)
(0.000408452 0.000269675 -0.00306207)
(0.000362571 -0.00233094 -0.00413135)
(-0.000139472 -0.000481127 -0.00339436)
(-0.000287389 -0.000281703 -0.00325244)
(-0.00014279 0.00119574 -0.00424689)
(-0.00186644 -0.00124832 -0.00435341)
(0.000393473 -2.17981e-05 -0.00366222)
(-0.000479881 2.63095e-05 -0.0038629)
(-0.000802166 -0.000156982 -0.00386308)
(-0.00029244 -0.000188699 -0.00388855)
(-0.000230346 -1.96391e-05 -0.00396285)
(-0.00024185 5.00857e-05 -0.00388612)
(-0.000103568 2.90133e-05 -0.00388562)
(-4.64962e-05 1.14605e-05 -0.003979)
(8.10375e-06 -1.56573e-05 -0.00386448)
(-2.6428e-06 6.65755e-06 -0.00396966)
(-3.8222e-05 1.1174e-05 -0.00388366)
(-4.72663e-05 3.29698e-06 -0.00385573)
(-2.79413e-05 4.08371e-07 -0.00385919)
(-5.29437e-05 -2.91217e-06 -0.00386958)
(-0.000103961 -1.01099e-05 -0.00389892)
(1.80508e-05 -1.94551e-05 -0.00384971)
(0.000823345 -6.75081e-05 -0.00385224)
(0.000965274 -3.61625e-05 -0.00293083)
(0.000946592 0.00094187 -0.00400312)
(0.00109063 -0.000942256 -0.00354317)
(0.00134891 1.134e-05 -0.00368525)
(0.00128424 6.08155e-06 -0.00370249)
(0.00100437 -0.000957066 -0.0037734)
(0.00101099 0.000943004 -0.00389902)
(0.000659639 -2.22686e-06 -0.00451706)
(-0.000586617 3.92181e-06 -0.00340526)
(0.00018935 -4.26233e-06 -0.00419578)
(-6.88277e-05 -7.143e-05 -0.00414289)
(-4.82027e-05 -4.52644e-05 -0.00418752)
(0.000171866 0.000171004 -0.00424948)
(-0.000511428 1.85346e-05 -0.00332916)
(-1.39206e-06 0.000196784 -0.00418231)
(-8.02704e-07 -6.97951e-05 -0.00419715)
(-1.65211e-06 -8.55829e-05 -0.00417725)
(1.3122e-07 9.54506e-08 -0.00452134)
(-0.000323073 0.00031522 -0.00305544)
(-0.000368073 -0.000366416 -0.00307555)
(-0.00036478 0.00036789 -0.00307012)
(-0.000327029 -0.000314042 -0.00306522)
(0.000324197 -0.000317913 -0.00305538)
(-0.000275202 -0.000271771 -0.00304455)
(1.02146e-05 1.01379e-05 -0.0045288)
(0.000366461 0.000364818 -0.0030652)
(-0.00031622 0.000328304 -0.00306197)
(-0.000317507 -0.000327711 -0.00306304)
(1.0135e-05 -9.76445e-06 -0.00452906)
(0.000365115 -0.000367578 -0.00307031)
(-1.95234e-08 -1.43486e-08 -0.0045474)
(6.20261e-08 5.99156e-08 -0.00455356)
(1.65067e-07 2.33477e-05 -0.00454409)
(1.83388e-07 6.61739e-05 -0.00403134)
(-9.64657e-06 5.92316e-05 -0.0040241)
(1.29502e-05 -0.000131441 -0.00373857)
(-6.59968e-06 2.4951e-06 -0.00368924)
(-3.62527e-06 5.3964e-07 -0.0036832)
(-4.3898e-07 3.69974e-06 -0.00368983)
(2.03978e-06 1.09311e-05 -0.0036969)
(5.06777e-06 2.68957e-05 -0.00370306)
(2.13503e-05 1.15829e-05 -0.00351222)
(1.57086e-05 9.52789e-05 -0.00312177)
(8.22998e-06 -7.60184e-05 -0.00363189)
(3.74441e-05 -9.00467e-06 -0.00359174)
(-1.06955e-05 5.35437e-05 -0.00343465)
(0.000224582 0.00118779 -0.00409587)
(-0.000320405 -0.00108535 -0.00407937)
(0.00189934 0.00125277 -0.00467686)
(-0.00196223 -0.00123575 -0.00453792)
(0.00195547 0.00126889 -0.0047857)
(-4.05028e-05 -3.06737e-05 -0.00367289)
(-0.000574307 -0.00112544 -0.00395594)
(-8.60593e-05 3.20888e-05 -0.00337209)
(0.000158218 0.00125911 -0.00414303)
(-1.685e-05 -4.82781e-06 -0.00365628)
(-3.72426e-05 -5.55607e-05 -0.00388162)
(-1.91681e-05 1.14019e-05 -0.00396174)
(-0.000110795 7.87227e-06 -0.00385343)
(-0.000231049 1.56682e-05 -0.00385194)
(-0.000460366 1.85503e-05 -0.00386614)
(-0.00105211 -1.33678e-05 -0.0040186)
(-0.00107575 -0.00018764 -0.00396631)
(-0.00267785 0.000643157 -0.00390704)
(-0.00126198 -0.000287134 -0.00370558)
(-0.00110321 -0.00123194 -0.00354825)
(-3.7362e-05 -0.000156479 -0.00358311)
(-0.000434897 -0.000149187 -0.00372883)
(0.000342396 -0.00243174 -0.00294475)
(-0.00216619 -0.000670541 -0.00322646)
(-0.00129471 8.55375e-05 -0.00436866)
(-0.000605862 -0.000981455 -0.00395629)
(0.000980884 0.000725463 -0.0041399)
(7.90195e-05 3.3393e-05 -0.00424466)
(5.11272e-05 4.10067e-05 -0.00281001)
(-0.00102544 0.000878146 -0.00350846)
(0.00108521 0.000736628 -0.00370022)
(6.39461e-06 0.000103156 -0.0043733)
(-0.000128422 -8.23816e-05 -0.00291199)
(-0.00112651 0.000976677 -0.00365463)
(0.00109042 0.000877743 -0.00372062)
(1.90501e-06 0.000111191 -0.00439439)
(-0.000143187 -9.92749e-05 -0.00292372)
(-0.00109938 0.00088627 -0.00360871)
(0.0010868 0.00100097 -0.00376438)
(9.34409e-06 0.000103643 -0.00437817)
(-0.000234655 -0.000228786 -0.00297904)
(-0.00104899 0.000735184 -0.00356556)
(0.000774894 0.00102208 -0.00398525)
(-0.000617929 -0.000354224 -0.00544522)
(0.000506494 0.000533546 -0.00406767)
(0.000383972 -0.000465088 -0.00396931)
(0.00113307 0.000497152 -0.00499115)
(-0.000532427 -0.00196284 -0.00483884)
(-0.000308024 -0.001066 -0.00393951)
(0.000168324 0.00019249 -0.0029797)
(0.000681681 -0.000484442 -0.00429113)
(-0.00222852 0.00105398 -0.00403132)
(-0.000123931 -6.35612e-05 -0.00377267)
(-0.00130471 -0.00172749 -0.00382163)
(0.00113812 0.000912372 -0.00379556)
(0.00104896 -1.81825e-05 -0.00285989)
(0.00100065 -0.00108338 -0.0039169)
(0.00125632 -0.00107106 -0.00439771)
(0.000606955 -0.00155696 -0.00315101)
(0.000137434 0.000653709 -0.00420747)
(0.000485074 -0.000855773 -0.00323587)
(0.000733269 -0.000548275 -0.00335522)
(0.00121107 0.000951386 -0.00453013)
(-0.000562629 -0.00197039 -0.00429315)
(0.000116267 -0.000221703 -0.00347305)
(0.000896502 0.00138465 -0.00454838)
(-0.000770014 -0.00170201 -0.0044111)
(9.58909e-07 -4.43224e-05 -0.00355769)
(0.000782668 0.00147993 -0.00450985)
(-0.000791855 -0.00155516 -0.00445593)
(-9.87193e-06 2.76642e-06 -0.00355979)
(0.000757704 0.0014885 -0.00448585)
(-0.000772707 -0.00149618 -0.00446191)
(-5.7575e-06 7.13922e-06 -0.00355909)
(0.000751577 0.00147904 -0.00446877)
(-0.000763305 -0.00147873 -0.00445898)
(-5.04444e-06 7.94544e-06 -0.00355076)
(0.000747979 0.00147577 -0.00446017)
(-0.000767187 -0.00147318 -0.00445297)
(-1.07023e-05 2.23745e-05 -0.00355288)
(0.000721813 0.00148173 -0.004447)
(-0.000809132 -0.00146227 -0.00445076)
(-6.37871e-05 9.03759e-05 -0.00349021)
(0.000612323 0.0015271 -0.00442885)
(-0.000936433 -0.00130936 -0.00438391)
(-0.000348726 0.000368324 -0.00340078)
(-1.50107e-05 0.00126994 -0.00422078)
(-0.00126112 -0.000708961 -0.00358091)
(-0.000780828 0.00134717 -0.00412017)
(0.000455566 0.00152155 -0.00390022)
(-0.00124267 -0.00188698 -0.0041633)
(0.0013751 0.00161071 -0.00484573)
(-0.00145988 -0.00189476 -0.00473568)
(4.09967e-05 4.37136e-05 -0.00355239)
(-0.00152943 0.000947989 -0.00459596)
(0.0015774 -0.00145009 -0.00351279)
(-2.3961e-05 0.000654703 -0.00440815)
(-0.000909467 0.000758974 -0.00404338)
(5.80771e-05 0.000821663 -0.00291424)
(0.000896354 0.00109006 -0.00373653)
(-0.000886697 0.00093751 -0.00386991)
(3.14325e-06 0.00065886 -0.0045066)
(5.24162e-06 0.00126943 -0.00369093)
(1.54511e-06 0.000756051 -0.00387694)
(1.24213e-06 -6.50147e-06 -0.00388274)
(1.91534e-06 -0.000110638 -0.00392539)
(1.78234e-06 -6.24844e-05 -0.00389418)
(6.34284e-07 -3.94721e-05 -0.00390418)
(1.35318e-06 -2.43926e-05 -0.00389595)
(3.51481e-06 -4.69377e-05 -0.0038939)
(4.71002e-06 -2.51082e-05 -0.00363459)
(1.51301e-05 6.28359e-06 -0.00352746)
(2.09319e-06 2.40436e-05 -0.0033855)
(0.000243333 0.00113214 -0.00410172)
(-0.000255851 -0.00109847 -0.00410858)
(-7.26417e-06 -1.77395e-07 -0.00362784)
(-1.72503e-06 1.74059e-06 -0.00361161)
(1.08376e-05 1.0754e-07 -0.00385012)
(1.62433e-06 1.35492e-07 -0.0039152)