/*--------------------------------*- C++ -*----------------------------------*\
| =========                 |                                                 |
| \\      /  F ield         | OpenFOAM: The Open Source CFD Toolbox           |
|  \\    /   O peration     | Version:  2306                                  |
|   \\  /    A nd           | Website:  www.openfoam.com                      |
|    \\/     M anipulation  |                                                 |
\*---------------------------------------------------------------------------*/
FoamFile
{
    version     2.0;
    format      ascii;
    arch        "LSB;label=32;scalar=64";
    class       volScalarField;
    location    "1.1";
    object      gradTx;
}
// * * * * * * * * * * * * * * * * * * * * * * * * * * * * * * * * * * * * * //

dimensions      [0 -1 0 1 0 0 0];

internalField   nonuniform List<scalar> 
5322
(
-0.251275
0.00581384
0.00707421
0.000780958
-0.000144032
-0.000181698
-6.06705e-06
0.000120459
6.97207e-05
-0.000211315
-0.000995542
0.0108119
0.0166556
-0.229435
-0.00607779
0.399336
-0.313797
-0.0049446
-0.239445
0.154436
-0.209971
0.182788
-0.193342
0.194629
-0.197166
0.189681
-0.190097
0.197554
-0.194633
0.19507
-0.185108
0.210739
-0.158297
0.241809
0.00362814
0.304049
0.214372
-0.0854951
0.240229
-0.0138075
-0.227847
0.229107
-0.0138712
-0.243757
0.242253
-0.00832898
-0.25908
0.22629
-0.00570687
-0.271543
-0.267916
-0.389031
-0.121608
0.260704
-0.0166222
-0.43043
-0.0122331
0.411349
-0.00493066
-0.411037
-0.0017692
0.400597
-0.00231218
-0.403738
-0.000143392
0.394464
0.00501316
-0.399838
0.0172519
0.327448
0.0130664
-0.3491
0.395548
-0.409376
0.394083
-0.401316
0.402099
-0.401265
0.45681
-0.329177
0.161232
-0.213381
-0.138055
0.239389
0.0248221
-0.135341
0.158746
-0.427556
-0.161017
0.509086
-0.0218968
0.00947606
0.0174737
0.0791439
0.364292
-0.0845789
-0.0101931
-0.0416059
0.163673
-0.379108
-0.379497
0.847109
-0.0409085
0.280994
0.457387
-0.00553192
0.00278444
0.00377678
0.00228506
0.00111595
0.000441011
-0.000119159
-0.00116054
-0.00284633
0.0044778
-0.00150989
-0.131843
-0.130081
0.0137748
0.0829103
0.00470847
0.126481
-0.151284
-0.0113325
-0.0348471
0.234532
0.192923
0.0536474
0.150845
0.0975079
0.0741466
0.161953
0.0817643
0.0877197
0.164773
0.0715816
0.138046
0.187304
0.212329
0.00912329
-0.155637
0.00858142
0.103685
-0.12561
-0.134767
0.0192713
0.0556851
0.0306391
-0.105472
-0.115922
0.0216955
0.0345277
0.0416146
-0.114392
-0.108535
0.0218753
0.0226981
0.0658901
-0.125544
0.163812
-0.353143
-0.473349
0.408063
-0.477957
-0.0200175
-0.328772
0.00265816
0.320481
-0.0769648
0.381902
0.189314
0.2823
-0.423114
0.165094
-0.364574
0.242597
0.316283
-0.386943
0.00870743
-0.328976
0.28967
0.360568
-0.383364
-0.00232976
-0.321311
0.305992
0.373829
-0.383393
-0.000687667
-0.319924
0.31189
0.378776
-0.38623
0.00014795
-0.322435
0.311964
0.380244
-0.392628
0.000543629
-0.32861
0.307566
0.379052
-0.40216
0.00114271
-0.336395
0.298431
0.374697
-0.410018
0.002564
-0.338947
0.28099
0.350777
-0.0764557
0.156368
-0.376303
-0.383747
0.852299
-0.0293699
-0.0321696
0.0195557
0.085429
0.361946
-0.0667345
-0.00649213
-0.0744339
0.148963
-0.383404
-0.377114
0.847415
-0.0493389
0.281068
-0.01051
0.00468426
0.0045307
0.00291088
0.00151233
0.000655223
-1.65043e-06
-0.00107131
-0.00258521
0.00446908
-0.0013836
0.104768
-0.116289
0.115881
-0.105257
0.000210626
0.105369
-0.0995842
-0.000559711
-0.125423
7.01737e-05
-0.105393
-7.96041e-05
0.0993277
0.00390674
0.117139
-0.00956548
-0.126648
0.000414799
0.125248
-0.00012842
-1.99258e-05
0.22186
-0.381388
0.380932
-0.376771
0.396708
-0.405993
0.424754
-0.423682
0.430702
-0.429196
0.433289
-0.431835
0.436373
-0.433439
0.440353
-0.433426
0.443014
-0.425918
0.437583
-0.234664
0.00494376
0.23687
0.0063877
-0.426876
0.414534
0.00215243
-0.430321
0.423558
0.00146068
-0.428007
0.423987
0.000967798
-0.42442
0.422206
0.000671135
-0.421338
0.419476
0.000696626
-0.418033
0.414443
0.00111488
-0.410405
0.399476
0.0012663
-0.381461
0.000225298
0.381332
-0.399723
-0.00179285
-0.396117
0.3762
-0.000705782
-0.22375
-0.0145371
0.227598
-0.394973
0.381451
-0.401805
0.403811
-0.411244
0.411044
-0.413229
0.414646
-0.41443
0.41895
-0.415159
0.425223
-0.412912
0.431562
-0.399396
0.429375
-0.231249
-0.0497081
0.100546
0.0126739
-0.398537
0.358266
0.00500522
-0.391718
0.378196
0.000703622
-0.378946
0.377015
-0.00047917
-0.373578
0.373649
-0.000667234
-0.371642
0.372329
-0.00190512
-0.370027
0.372449
-0.00480241
-0.364561
0.367222
-0.0110707
-0.339124
0.310451
0.00669272
-0.112495
0.191462
0.31484
0.0100174
0.0391802
-0.0575546
0.161105
-0.496938
0.377151
-0.473062
-0.318549
-0.393866
0.0102698
0.259295
0.286792
-0.4128
0.159629
-0.370463
-0.0275332
0.0198449
-0.149944
0.0128295
-0.00605401
-0.159078
0.0162112
-0.0256952
-0.375881
-0.407662
0.294192
-0.381594
0.00487505
0.348305
-0.379857
0.367067
-0.38067
0.00262816
0.374417
-0.384144
0.376365
-0.391
0.0145361
0.374495
-0.399114
0.367834
-0.401246
0.0828831
0.0193299
0.0123468
0.0129974
0.00620506
0.0152784
0.387095
-0.409549
0.00330038
-0.332184
0.274057
0.382052
-0.402724
0.00736055
-0.353592
0.246182
0.492037
-0.0577546
0.00943306
-0.411493
-0.379763
0.802146
-0.0498386
0.0132881
0.0223771
-0.244155
0.0557965
0.191482
-0.198186
0.0162664
0.205087
-0.186009
0.00257116
0.199255
-0.190491
-0.000354077
0.190222
-0.184592
-0.00492015
0.197731
-0.178305
-0.0120875
0.208317
-0.140169
-0.0202099
0.24613
0.0934513
0.0691118
-0.0181651
-0.00945435
0.0969422
-0.0426197
0.436795
-0.466895
0.456549
-0.466493
-0.302014
-0.39163
-0.000840446
0.298737
0.376926
-0.390848
-0.00209548
-0.302841
0.00252182
0.000214538
0.00329384
-0.000327326
0.00645618
0.0250471
0.0231696
0.0420396
-0.012442
0.00659652
0.175274
0.278459
0.232241
0.0785028
0.353142
0.140559
0.0659716
0.0197427
0.0124855
-0.00590404
-0.00390926
0.00347848
0.00601602
-0.0555021
-0.000830053
0.0640754
-0.0591528
0.463004
-0.469395
0.466619
-0.479521
-0.314521
-0.402742
0.00122154
0.297325
0.387847
-0.395461
0.000232722
-0.305581
0.00438768
0.00194889
0.000480567
0.000316074
0.00078732
0.00151513
0.00238695
0.00188747
0.00517558
0.0078717
0.0752538
-0.0012939
-0.000508619
-0.00240778
0.000426771
0.00100901
-0.00991594
0.0230277
-0.265439
-0.000673618
0.00364245
0.000178333
-0.00359029
0.406061
-6.03788e-05
-0.424569
0.410364
-0.414471
-0.0014539
0.424307
1.57159e-05
-0.430634
0.418344
-0.419171
-0.000602229
0.430239
0.000257738
-0.433066
0.422167
-0.421382
3.49664e-05
0.43345
0.000482383
-0.435967
0.425972
-0.422385
0.000646097
0.435906
0.000406602
-0.439619
0.430415
-0.42087
0.00154608
0.436311
-0.000819918
-0.441219
0.433011
-0.411311
0.00245267
0.426219
-0.00375134
-0.433986
0.42785
-0.235014
-0.000286731
0.233364
-0.0143353
-0.0298705
-0.0312864
-0.03281
-0.409998
0.102113
0.0906429
-0.0348681
-0.0718472
-0.0356976
-0.466611
0.0983684
-0.11997
-0.200541
-0.07311
-0.0575864
-0.0604626
-0.0258919
-0.0116241
0.00202594
-0.0006607
-0.0095555
-0.0118166
-0.00698532
-0.0132359
-0.0259903
0.0045127
0.205836
0.241318
0.236648
0.272658
0.337228
0.32106
0.251093
0.252746
0.16491
-0.146654
0.0473376
-0.0172069
-0.0120507
0.0429666
-0.127857
-0.000348015
-0.000200676
-0.000413028
3.28049e-05
-0.0807682
-0.0920183
-0.0911951
-0.0817572
0.0810493
-0.0688005
0.00255365
0.0916152
-0.0790549
-0.0793767
0.00253374
0.0912788
-4.88086e-06
1.55065e-05
4.12667e-05
4.58469e-05
-0.00241164
0.00323756
-0.00164992
-0.000906316
-0.000109745
0.000509946
0.00126694
0.00533759
0.00392715
0.00205749
0.00936103
-0.00267387
0.0561455
-0.0801013
0.474836
-0.490558
0.488867
-0.0101257
-0.143577
-0.0215148
0.0395544
-0.0042125
-0.00931064
-0.00479202
-0.0276988
-0.0577622
-0.115092
-0.263028
-0.268936
-0.669462
-0.315495
-0.275802
-0.0093405
-0.108724
0.0855989
-0.541548
-0.323677
-0.151466
0.245221
0.0197549
0.0127818
-0.25636
0.271301
0.00159865
-0.0321056
-0.281628
0.272606
0.000476254
-0.0357968
-0.274846
0.2717
0.00233602
-0.0586637
-0.262249
0.193723
-0.154482
0.126623
0.095993
0.283269
-0.133107
-0.077006
0.042081
0.17042
-0.55713
-0.0309827
-0.326177
0.284529
0.26224
0.250161
0.314081
0.151739
0.0343585
0.121268
0.183317
0.302767
-0.140657
0.0290667
0.224126
-0.192504
0.000239727
0.195667
-0.197964
-0.00246798
0.189426
-0.193177
-0.00143938
0.187894
-0.190826
-0.00126111
0.186995
-0.191797
-0.00267557
0.180453
-0.202283
-0.0159468
0.153081
-0.234108
-0.0871815
-0.00375267
-0.315281
-0.195207
0.113892
-0.310668
0.343775
-0.36497
0.0102492
-0.382357
0.39435
-0.00599026
-0.227367
0.0145193
0.224088
-0.221674
0.000785813
0.00131041
0.000386277
0.000310533
0.000478835
0.000445584
0.000158571
0.000338296
0.000878702
0.00117751
0.00378253
0.000523297
0.0608334
-0.0639628
-0.00181604
-0.000431258
0.00270941
0.000406084
0.299141
0.385308
0.00243773
-0.31892
0.312139
0.000274494
-0.32167
0.31134
0.000676237
-0.328924
0.306127
0.00130348
-0.339673
0.296145
0.00255907
-0.347406
-0.0151037
-0.0119937
-0.0657534
-0.0653431
-0.106347
-0.0516481
-0.0253729
-0.0114717
-0.00768749
-0.0149926
-0.0275327
0.00171712
0.200808
0.233298
0.22653
0.321619
0.192518
0.00209174
-0.0219654
-0.0116348
-0.00616958
-0.00965159
-0.0223348
-0.0478214
-0.0989925
-0.232661
-0.247619
-0.440674
-0.332009
-0.104648
-0.105407
0.224319
0.0262741
-0.0275201
-0.0218804
0.111012
0.00458609
-0.0884558
-0.0846556
0.0877152
-5.59202e-05
-0.0978252
-0.093627
0.0767592
-0.000394568
-0.121614
-0.116036
0.0371473
-0.153983
0.0980451
0.095052
0.0994853
0.086519
-0.135126
0.00947973
0.0500496
-0.153116
0.0367437
-0.147837
0.173699
-0.401834
-0.0215499
-0.386673
0.262875
0.270862
0.271107
0.266047
0.261381
0.264493
-0.418323
-0.0252678
-0.377378
0.270239
0.289384
0.271411
0.285647
-0.0213036
-0.402398
-0.399859
0.174106
0.272102
0.240397
0.237915
0.296214
0.283772
0.227432
0.0691728
0.151106
0.0615799
-0.0327455
0.0756454
0.0116189
-0.0551779
0.057226
0.00252035
-0.0568289
0.0562542
0.000381515
-0.0578287
0.0554413
-0.000135557
-0.0560083
0.0570779
-0.000733754
-0.0573999
0.0552225
-0.00377683
-0.0600436
0.0523389
-0.0139717
-0.0798561
0.0305747
-0.0635021
-0.154212
-0.0736031
-0.228916
-0.27582
-0.281499
-0.189566
-0.139337
-0.214236
-0.00902614
0.15666
-0.118364
0.0115026
0.129864
-0.129516
0.00546733
0.135348
-0.138817
-0.00459322
-0.00933087
-0.240736
-0.000768413
-0.39045
0.000458475
-0.386987
0.00207154
0.404998
-0.41109
0.000482018
-0.408021
0.00477977
0.414283
-0.375619
8.62322e-05
0.376379
0.00197426
-0.376158
0.000100178
0.376876
0.00130748
-0.376905
0.000139431
0.377308
-0.000662305
-0.377844
0.000226813
0.378005
-0.00100428
-0.378801
0.0005826
0.379102
-0.00565028
-0.375903
0.00279372
0.376467
-0.00761603
-0.00841781
-0.469538
-0.339384
0.00783592
0.437083
-0.00288119
-0.463896
-0.321827
0.00647345
0.453246
-0.000948299
-0.460653
-0.316519
0.00246519
0.456749
-0.000703402
-0.458768
-0.313471
0.00022193
0.458557
0.000632311
-0.455552
-0.311397
-0.00189301
0.45908
0.000758311
-0.450674
-0.308257
-0.00539461
0.46189
0.00298528
-0.432413
-0.30027
-0.00572758
0.469027
0.010505
-0.375736
-0.265617
0.0246499
0.494565
0.0597281
-0.0427727
0.114302
-0.195754
-0.316512
-0.00318946
-0.0885862
0.00138977
0.271385
-0.0224111
0.00380313
-0.228696
0.00102116
0.391431
-0.382675
-0.00239877
-0.385421
0.0107467
-0.369954
-0.00071069
0.372176
0.00835241
0.00302668
0.000766415
0.0044384
0.402769
0.00276501
-0.00344285
-0.100089
-0.000280035
0.108179
-0.000149611
0.000354846
0.000487865
-0.0172322
-0.0199176
-0.0142768
-0.156023
0.0156833
-0.0255788
0.00238145
0.00272442
0.00482621
0.354546
0.292599
0.00166545
-0.00313929
-0.0132527
-0.015863
0.259597
0.00959029
-0.330744
0.29635
-0.00213181
-0.320832
0.308183
-0.000616189
-0.000688628
0.00109176
0.00404236
0.00122613
0.00265887
0.00554881
0.0026198
0.00131635
0.001124
0.004476
0.000321827
0.000968641
0.00240249
-0.327847
0.288611
0.457672
-0.472797
0.466367
-0.471924
-0.00117195
-0.371593
-0.00354848
0.37477
-0.00465249
-0.368522
-0.0118104
0.386132
0.0230174
0.028872
-0.263461
-0.000922636
0.282988
-0.296914
-0.000677576
-0.489461
-0.000937508
0.487964
-0.427902
-0.000186519
-0.433441
0.000124015
0.433662
-0.428624
-5.38433e-05
-0.426161
-5.39324e-05
0.426573
-0.438814
-0.000230732
-0.418099
-0.00130263
0.417595
-0.417207
-0.0037196
0.413886
-0.40836
-0.00770623
-0.00982182
-0.00226502
-0.000976115
-0.000129361
0.000152317
0.000439106
0.00127372
0.00262642
-0.00454419
0.00119255
-0.104874
0.116496
-0.115157
-0.107737
0.0010779
0.000647056
-0.00224073
0.00631038
0.102171
0.000929498
-0.00121657
-0.00951148
0.0124551
-0.0109091
-0.152816
0.0149185
-0.032397
0.229192
0.0111224
-0.010968
-0.00925757
0.00609219
8.87371e-05
0.0783522
0.0793891
-0.00239364
0.0677205
0.10476
-0.00180953
-0.00228116
-0.00235011
-0.000815919
0.00810242
-0.121794
0.311686
0.0181589
-0.465115
-0.00297274
0.471049
-0.413333
-0.00206291
-0.426763
-0.000208461
-0.421374
-0.000173736
-0.422941
0.000926997
0.424009
-0.43498
0.000178668
-0.416447
0.000637387
0.41724
-0.417403
-0.000376146
0.417873
-0.000268811
8.99149e-05
0.0004522
0.00114244
0.00186374
0.00247673
0.000134139
-7.43942e-05
-0.00251733
-0.00239952
-0.00905377
-0.0113984
-0.00238913
-0.0024561
4.09696e-05
5.3443e-05
0.000305301
0.000130041
0.000328795
0.00026207
0.000336984
0.000403853
0.000383134
0.000264521
0.00156964
0.0019156
0.00234919
0.00899488
-0.000665477
0.0639599
-0.32976
-0.0835062
-7.97139e-05
-0.0311581
0.141799
-0.144659
-0.470108
-0.170316
-0.00270715
0.0411955
-0.000164921
-0.333491
-0.141388
-0.0935254
0.213159
0.025701
-0.0235615
-0.0413024
0.120156
0.00436689
-0.0822262
-0.102351
0.102834
0.000228143
-0.0909061
-0.107873
0.0953644
0.000563737
-0.11688
-0.122262
0.0256752
-0.00705911
0.00114049
0.00144932
0.409735
-0.370512
0.00252064
0.38312
-0.0139126
0.0102464
-0.484087
0.00184455
-0.30055
0.308521
-0.00254747
-0.293354
-0.510932
0.441404
-0.0277659
0.0448054
0.166127
0.00170177
0.357825
0.265834
0.299271
-0.39709
0.00475094
-0.336388
0.0104544
-0.372452
0.00809475
-0.356853
0.0103425
-0.358623
0.00912835
-0.382715
0.279021
0.27282
-0.0191941
-0.481091
-0.386814
0.170924
-0.118926
0.149381
0.0839291
0.0997232
-0.146169
0.0411884
0.0312574
-0.157804
0.0622528
0.114147
-0.136814
0.214572
-0.114964
0.0179064
-0.126987
0.0220913
-0.138488
-0.108524
0.0212178
-0.00878744
-0.00200522
-0.00137259
-0.000294386
0.000321931
0.000390262
0.00052104
0.00125127
0.00256832
-0.00459959
0.00129203
-0.068554
0.0809432
0.000589889
0.0163304
0.0117179
0.00944105
-0.117812
-0.00864201
0.125904
-0.103645
-0.0567376
0.127717
-0.139124
-0.190109
-0.214572
0.151313
0.156238
-0.00936485
-0.013169
-0.0426636
0.00496261
0.160173
-0.0291238
-0.0375188
-0.0211644
0.114667
0.114749
-0.0376919
-0.0288571
0.147411
-0.0809241
-0.171353
-0.0813493
0.157795
-0.0158001
-0.0167634
-0.0204994
-0.00543699
0.00170448
0.27099
-0.022878
0.0104225
-0.000447504
0.000337495
0.000555244
0.000340553
-5.46578e-05
-0.000708791
-0.00177163
-0.000236033
-0.00125261
0.000348956
-0.0112083
-0.00416844
0.00618181
-0.0158084
-0.00756973
-0.007481
-0.209294
0.20113
-0.00575715
-0.00471139
0.00984019
-0.00488846
-0.00448477
0.0340687
0.0708717
0.03627
0.252295
-0.126934
0.0163757
0.133034
0.16774
-0.0663594
0.00678192
-0.00241762
0.0110085
-0.00268872
0.0012729
-0.0191618
-0.00377282
0.000148056
5.44597e-06
-0.000507448
-0.0011799
-0.000807968
-0.00204736
0.00145334
0.00276952
0.000597214
-0.00518487
-0.00104717
-0.000165048
-0.000118771
-0.000268999
0.000681341
0.00751486
0.00233534
0.00386181
0.00221371
0.000846138
2.98147e-05
0.000755423
0.000794905
0.00167624
0.00293375
-0.404313
0.367647
-0.370116
0.371152
-0.370977
0.0019162
-0.410518
0.41026
0.004384
0.00288756
0.0017858
0.000787357
0.400981
0.00242147
-0.00372852
0.126822
-0.00273575
0.00236967
0.0113738
-0.0187016
0.134234
0.105412
-0.0466136
0.0185399
-0.000394948
-0.000167325
0.0688126
-0.00236783
-0.000139992
0.0485512
-0.146881
0.0425881
0.000511104
0.0170553
0.0124776
0.00132785
-0.0130284
0.00528182
0.0114747
-0.0467116
-0.0428976
0.134694
-0.0568717
-0.103541
-0.0188659
0.127186
-0.00847276
0.0114561
0.00915269
-0.00637513
-0.00034557
0.00250643
0.00915316
-0.00360057
-0.00400242
-0.00105613
-0.000611423
-0.00016145
0.00115785
0.000732505
0.00062816
0.000415712
0.412718
-0.41327
0.371899
-0.372562
0.373222
-0.375101
0.00183467
-0.416105
0.414352
0.00136762
0.000552416
5.56649e-05
-0.000333897
0.000565364
-0.00102074
0.000548106
0.000236827
0.000439702
0.000340066
0.000646153
0.000223375
0.000680932
0.00200306
0.0111537
0.0100851
0.0362989
0.00173821
0.00074338
0.000145143
-0.000742709
-0.00267344
-0.00111573
-0.00112068
0.000127896
-0.000256146
-0.000201585
0.000244064
0.000271823
0.00026166
1.56029e-05
-0.00108251
-0.00286682
-0.00300092
-0.00116931
1.66109e-05
0.000111021
0.000196202
0.000302119
0.000413967
0.000730597
0.000627452
0.000586556
0.00129856
0.00110555
0.000606829
0.00176162
0.00338997
0.00138544
0.00204272
0.0490381
-0.00999107
0.00442724
0.00142876
0.00534338
0.108352
-0.00503529
-0.0156491
0.0776356
0.0233328
-0.333626
-0.116128
-0.253489
0.22743
-0.154905
-0.165865
0.203607
-0.269544
-0.0145091
-0.0197357
-0.224397
0.197645
-0.00313098
-0.0110111
-0.00112942
0.00403815
0.00565272
0.082642
0.0258247
-0.153286
-0.131837
0.250098
0.0248946
-0.0591525
-0.0171761
0.103241
0.00336595
-0.117974
-0.0764848
0.0776578
-0.000279501
-0.123506
-0.0848803
0.067481
-0.00111611
0.107562
0.103473
0.0061852
0.129509
-0.125926
0.000488265
-0.113619
-0.000636958
-0.00261182
-0.000444277
-3.60274e-05
0.000178765
0.000197497
0.000171943
0.000138021
4.10065e-05
-0.00103178
-0.00281071
-0.0014279
-0.32034
0.306402
-0.000599245
-0.319205
0.312206
0.468843
-0.47393
0.47027
-0.480201
0.000239817
-0.377775
0.00257779
0.373662
-0.000391569
-0.373272
-0.000186265
0.373157
0.00190182
0.00217955
-0.274906
0.000734331
0.279107
-0.300589
0.000450164
-0.49059
0.000426644
0.493292
-0.43015
-0.000147503
-0.433565
0.000460132
-0.42942
-0.000686132
-0.423605
-0.00130851
0.420093
-0.435858
0.000102816
0.418079
-0.00117826
-0.411514
0.410512
-0.00121565
-0.424873
0.429421
-0.415593
-0.000150363
0.000425657
0.00186479
0.00156488
0.000806919
0.000270123
-0.00021461
-0.00106548
-0.00118334
-0.000185772
0.000787293
0.00201207
0.0020713
0.00452593
-0.321487
0.312611
0.00104276
-0.327163
0.309094
0.471022
-0.491932
0.469438
-0.502282
0.0126612
-0.429294
0.0396255
0.373519
0.00238424
-0.392628
0.0113447
0.375828
0.000540804
0.00690074
-0.272846
0.00560106
0.291171
-0.308455
0.00154707
-0.488722
0.00271218
0.494517
-0.423445
-0.00167791
0.414937
0.00377474
-0.469228
0.273962
-0.00109623
-0.315749
0.280461
-0.294317
0.0153141
-0.0361138
-0.0180158
-0.0312888
-0.0558073
0.349215
-0.495856
0.107419
-0.0795587
-0.0310249
-0.011945
-0.00453375
-0.002714
-0.00423947
-0.00117335
0.0652565
0.673332
0.337569
-0.175259
0.118164
0.0604152
0.384291
-0.333317
0.362049
-0.0215588
-0.236195
0.0114586
0.427351
-0.404067
-0.00107878
-0.401113
-0.000101059
-0.405762
-0.000253076
-0.415549
0.00180197
0.419473
-0.42937
0.000409675
-0.414308
0.00171163
0.416433
0.00159808
0.00108346
0.436604
0.00242836
0.431121
-0.000339809
-0.00274876
-0.00518606
-0.0176336
0.00280893
0.236226
0.016424
0.0205339
0.0814236
0.143091
-0.197924
-0.000573218
-0.293687
0.00102197
-0.486506
-0.00224858
0.483808
-0.424661
-0.000789039
-0.432074
-4.03595e-05
-0.42643
-3.83238e-05
-0.425208
0.000359743
0.425872
-0.437385
-1.05264e-05
0.438012
-6.74982e-05
0.000398986
0.437743
-2.90155e-05
-0.000160813
-0.000844138
-0.00225154
0.420516
-0.00446681
0.39648
0.0237043
0.0121128
0.299166
0.0118482
0.00707805
-0.000570232
0.304088
0.00113491
0.00472263
-0.273857
-0.000393415
-0.299051
-0.000149708
-0.489951
-0.000197696
0.490527
-0.42945
-1.39103e-05
-0.434006
0.00027701
-0.429618
-0.000270871
-0.426112
-0.000570551
0.425847
-0.439445
-0.000450961
0.433638
-0.000937726
-0.000402654
5.91607e-06
0.000145257
0.000234882
0.000427119
0.00123905
0.00231759
0.00125429
0.0012353
0.000619119
0.00108525
-0.00150954
-0.000548037
0.000209952
0.000439501
0.000523006
0.000473616
0.000336762
0.000544316
0.00102453
0.00306002
0.00254918
-0.324791
-0.00841395
-0.318162
0.353597
-0.00721922
-0.335696
-0.34333
0.360439
0.337001
-0.00708647
-0.32045
-0.365987
0.382999
-0.344071
-0.00869908
-0.307784
0.346296
0.364237
0.358922
0.351057
-0.00797964
-0.338801
-0.31462
0.00257969
0.343324
-0.006582
-0.35991
-0.328237
0.00111554
0.33977
-0.00236341
-0.368638
-0.334577
-0.343779
-0.351808
-0.00269806
0.350616
0.358037
0.00116396
0.332941
-0.00263518
-0.326471
-0.375075
0.381116
0.00106951
-0.30075
-0.451789
-0.00614557
0.311938
0.00206027
-0.29325
-0.433943
-0.00700323
0.328823
0.387285
-0.27846
0.0224348
-0.270689
-0.00959898
-0.274359
0.022115
-0.269869
-0.0095523
-0.275429
0.023227
-0.274966
0.382613
0.332848
-0.0104335
0.014969
-0.00131225
-0.205261
-0.246018
-0.232958
-0.258273
-0.245919
-0.247874
-0.254639
-0.209119
-0.323616
-0.25586
-0.233851
-0.245299
-0.165719
-0.0715883
-0.0888611
0.147096
-0.164511
0.387111
0.391402
0.388389
0.390037
0.40427
0.379988
-0.15938
0.128492
-0.071297
-0.165875
-0.0893046
0.160311
-0.0165895
-0.00340261
-0.00340467
-0.0015631
-0.000663095
0.000381804
0.000303303
0.356127
6.05325e-05
-0.347809
-0.356162
-0.329464
-0.379647
-0.000173764
0.331089
0.379803
0.00038793
-0.303754
-0.458041
-0.00220671
0.308172
0.460877
0.00150332
0.0599217
-0.0588835
-0.000638018
0.0598366
-0.059309
-3.7295e-05
0.0607146
-0.058897
0.00220478
0.0673779
-0.0531916
0.0127807
0.09447
0.0335058
0.0190073
0.00605811
0.00310295
0.000335533
0.000111082
-0.000582254
0.000115963
-0.00132703
-0.000786399
-0.00271643
-0.0608301
0.46273
0.00307219
0.0570847
-0.0792087
-0.0124336
-0.0214753
-0.00851387
-0.0518555
0.0357986
0.0107251
-0.377192
0.0233135
-0.260389
-0.0106349
0.0154535
0.000723953
-0.165178
-0.281319
-0.27378
-0.229119
-0.0723413
-0.154525
-0.0623468
-0.123265
-0.35043
0.0597987
0.494492
0.377592
0.406739
-0.158976
-0.338542
-0.204317
-0.000465192
0.0345013
0.0225773
0.0130607
0.00515664
0.00192334
-0.000113838
-0.305215
-0.462833
0.460497
0.307391
0.000211481
0.00178308
0.00559298
0.00615418
0.0195412
0.00733279
0.00156359
-0.000409023
-1.62776e-06
0.378001
0.00172385
-0.331172
-0.383478
-0.304825
-0.470296
0.00109195
0.308608
0.461084
0.00235216
0.00154007
0.00163004
0.00112566
0.00173536
0.0030098
-0.420115
0.376383
-0.37723
-0.00580168
0.0024982
0.00121396
-0.00257234
0.000612799
0.000176193
0.415897
0.000608304
0.000403078
0.416133
0.00267717
0.000249958
0.000885801
0.00157421
-0.000903915
-1.37249e-05
0.000488595
9.00474e-05
0.000311307
0.000137251
4.29796e-05
0.000373793
0.00136563
0.000602606
0.000141956
6.53859e-05
-0.000763363
-0.000243514
-0.000256212
-0.000842851
-6.41335e-05
0.000272138
0.000320123
-0.000323956
-0.000250222
-0.000105953
-6.37137e-05
-0.0035988
-0.00371765
-0.0166643
-0.00633204
0.365752
-0.00231107
0.000338473
0.00025136
-0.00155629
-0.00167692
-0.00085383
-0.00676811
-0.00615981
-0.00458078
-0.000772005
-0.334175
0.301059
0.00475052
-0.332655
-0.013442
-0.0133857
-0.0647189
-0.0826096
-0.303808
-0.306264
-0.491427
0.12319
0.0468005
0.254261
-0.0895352
0.132014
-0.0148109
-0.150768
0.135706
-0.00339022
0.105711
-0.00345266
0.127632
-0.140855
-0.0118922
-0.00374443
-0.00461406
0.00202753
-0.0170043
0.113166
-0.00564822
0.00421496
0.00422332
0.00270172
0.00154545
0.000672309
0.000575097
0.0059058
0.00507504
0.012748
0.0110527
0.0316867
0.00654869
0.00293835
0.000972612
0.300343
-0.303185
0.00112391
-0.491147
0.00134832
0.496623
-0.42933
-0.000625064
-0.430148
0.000458176
0.425163
-0.000277935
1.65393e-05
0.000311306
0.000439498
0.00111033
0.00244223
0.00140439
0.000866957
0.000480072
0.000186698
9.385e-05
0.000142529
0.000165013
0.000153561
0.419531
8.74739e-06
0.425317
3.23499e-05
0.407649
0.391274
0.00158447
0.389679
0.234995
0.00619327
0.00134594
-0.000158223
8.15014e-05
-0.000819881
0.427017
0.00151994
-0.00108648
0.278033
0.000129381
0.000566128
-0.000382317
0.300221
0.00100059
0.00335965
-0.274307
0.00268202
0.283916
6.21887e-05
0.00206828
0.00101355
0.000680545
-7.26017e-05
0.429237
0.000159914
0.428644
5.46449e-06
0.000645024
0.430519
0.000296029
0.434942
-0.000125586
0.00182575
0.431223
-0.00165675
0.300276
-0.000444211
0.00587357
-0.276699
0.00944496
0.296429
-0.00974606
-0.000261954
-0.0105761
-0.0359305
-0.0842403
0.00310406
-0.012254
-0.00530334
0.00405057
0.0036674
0.429472
-0.000628787
-0.00136589
-0.00134462
-0.00029146
-0.00485001
-0.000237811
0.000664716
0.000511494
0.434888
0.428846
-0.000327918
-6.6528e-05
-0.000872393
-0.00167778
-0.0018625
-0.00798941
-0.00299169
-0.0031019
-0.00164683
-0.000631206
0.43729
-0.00124451
-0.000214609
0.000388319
-0.000214086
-0.00146497
-0.00538743
-0.0163783
-0.00393223
0.000184827
0.000504101
0.00191669
-0.00209381
0.00245549
0.00419236
-0.00732562
0.0323954
0.0671655
-0.0488109
0.347774
-0.00132229
-0.0227387
-0.0335932
-0.0184676
-0.00616137
0.000253512
0.00662096
0.0186966
0.0334502
0.0359768
0.000710091
0.0175643
0.0174072
-0.32368
-0.164653
-0.33897
-0.166363
-0.000400571
0.0210568
0.00524968
0.00217483
0.317407
0.377182
-0.00138258
0.00306113
0.00125922
0.00250405
0.0013725
0.00296607
-0.00381186
-0.020298
0.151216
0.34682
0.0145041
-0.000469018
0.000984052
0.00100844
0.000513496
0.000594961
0.000256326
0.000258765
0.0003188
-0.000512
0.000189638
0.000160366
0.00094638
-0.00041614
-0.00078398
-0.359941
0.00265414
-0.35057
0.338427
0.00692577
-0.353064
-0.364952
0.347741
0.325506
0.00466101
-0.332487
-0.388662
0.372134
-0.000809613
0.311141
0.459802
0.00509635
-0.00103532
-0.00142418
0.00137613
0.00212947
0.00487707
0.0771202
0.121631
0.186772
0.441542
0.0289598
0.228508
0.338317
-0.0157628
-0.00444228
-0.0108381
-0.00270808
-0.00172262
-0.000359109
0.329691
0.35367
0.345641
0.335615
0.00283509
-0.375612
-0.341972
-0.000997598
0.331183
0.0073101
-0.378379
-0.347926
-0.00234273
0.320403
0.341484
0.303963
-0.00168052
-0.00241947
-0.0027029
-0.000810467
0.00026015
0.00165892
0.000322345
0.000267013
-0.000808872
-0.000344016
-0.00311536
0.0294464
-0.00323052
-0.00203134
-0.00491162
-0.00389444
-0.00241198
-0.00410888
-0.00175827
0.0841598
-0.00200455
0.00187208
0.000256847
-7.57365e-06
0.00507939
0.0044478
-0.0315897
0.181169
-0.0789184
-0.306197
-0.387422
0.0290798
-0.177409
0.0737134
0.0233408
-0.10932
-0.1176
-0.0128178
-0.0193864
0.128826
0.118081
-0.0110905
-0.114872
-0.00199092
0.115361
-0.000582466
0.00149897
-0.000113434
0.00134308
0.00330256
0.00343654
0.00236165
0.00068803
0.00054706
-0.00132453
-0.0011449
-0.000181332
-0.000692468
-1.8485e-05
-0.000150541
0.000901902
0.00187785
0.00175796
-0.00235352
0.00313368
0.00657923
-0.012216
0.384087
-0.0251818
0.0184034
-0.427455
0.00531588
0.00467251
0.035086
0.00406056
0.00859319
0.0262863
-0.00193601
-0.000734242
-0.00258885
0.00680442
0.0740408
-0.00479526
-0.00276463
-0.00141655
0.00189148
-0.188
0.217964
-0.00652163
0.001389
-0.00893822
-0.0224125
-0.025351
-0.00471203
-0.00223481
0.0902982
-0.00230664
-0.00281112
-0.00530451
-0.000883766
-0.0031037
0.0795855
-0.00519437
-0.00297604
0.00681421
0.00520452
-0.00117739
-0.00132524
-0.000863441
-0.00219383
0.002026
0.00554087
0.00445032
0.00360566
-0.00873388
0.0174202
0.0175048
0.0201985
0.0268205
0.384469
0.0521966
0.0079815
-0.012561
-0.00425842
6.74315e-05
0.00414441
0.0117535
0.00165832
0.374686
0.31429
0.00106769
-5.42289e-05
0.000346933
0.000267376
0.312791
0.372828
0.00020998
-0.372803
-0.338206
0.337708
0.000258255
0.348465
0.000241755
0.00773753
0.0210596
0.00201703
0.00195014
0.00599808
0.000272217
0.000778524
-0.00576239
-0.0182165
-0.00537117
0.312035
0.33311
0.320289
-0.00603141
-0.00206729
-0.000445969
-0.000189472
-0.00044029
0.369868
0.311937
-0.000233758
0.000394944
0.000136005
-0.000729565
-0.000942654
0.310073
0.362112
-0.00194122
0.000895461
-6.39442e-05
-0.000551435
-0.00194606
-0.0103511
-0.0544367
-0.351628
-0.126851
-0.024745
-0.00325785
-0.000335907
0.00014786
-0.000103636
-0.000409461
0.0010182
-0.00537496
-0.01372
0.0125222
-0.0167508
-0.0327651
-0.0219209
0.0128545
0.229652
0.330371
-0.0162068
0.00308551
0.219703
0.332163
0.00222976
0.209176
0.345448
0.164774
0.00106408
-0.00205224
0.353928
-0.00225481
0.0203072
0.121301
0.0208916
0.0447321
0.0473941
0.0450392
0.0596509
0.0376212
-0.00101184
-0.00492984
0.0458329
-0.0215841
-0.0100364
-0.00779379
0.0489771
0.00474696
0.0338555
0.0296708
0.207394
0.17506
0.194371
0.185578
0.190121
0.0410933
0.00666684
-0.000790116
-0.00695548
-0.0837996
-0.283117
-0.267832
-7.4337e-05
0.0112322
0.170941
0.000112954
0.429374
0.0032521
0.000588394
0.000189094
-0.000629492
-0.0111236
0.00164888
0.300957
0.431142
0.426599
-0.000217067
-0.010753
-0.424666
0.00119078
0.00152227
0.00137117
-0.0436704
0.46965
0.0124875
0.00665981
0.00224005
0.00568715
0.0932753
0.00323689
0.214486
-0.253694
-0.031553
-0.448841
-0.000203232
-0.0211301
0.105648
0.000708071
-0.455229
0.405081
0.00544218
0.228871
0.0153161
0.0887685
0.213146
0.0343948
0.0366418
0.00169565
0.00146583
-0.00170765
0.290541
0.0130864
-0.0182343
-0.0258474
-0.00830404
0.0021071
0.000445392
0.000187859
0.000340015
0.000400534
0.000122521
-0.000969554
-0.00151401
-0.0135599
-0.00688288
0.243567
0.0197123
-0.407881
0.444466
0.0269587
0.32082
0.00212077
-0.296705
0.307192
0.0302416
-0.268962
0.291101
0.00594141
-0.279814
0.285689
0.00374072
-0.281703
0.284942
0.00269144
-0.282834
0.284318
-0.000519047
-0.285628
0.280758
-0.00703989
-0.291999
0.268118
-0.032976
-0.306847
0.200032
-0.145962
-0.388306
-0.118266
-0.364096
0.0227308
0.23794
-0.239775
0.0136554
0.248754
-0.246132
0.00511237
0.249871
-0.256901
-0.00289477
0.249097
-0.255793
-0.0211463
0.240522
0.252514
0.389269
0.0984922
-0.280997
0.00367519
0.413098
-0.000756679
-0.42094
-0.00186809
0.403618
-0.0024647
-0.407569
-6.92613e-05
0.405192
0.000421257
-0.39912
0.00128013
0.410775
-0.0121338
-0.43171
-0.0187542
0.336793
-0.0597944
0.0774018
0.175558
-0.321432
0.327433
-0.389414
0.366855
-0.379037
0.37314
-0.373864
0.375372
-0.371598
0.377331
-0.370601
0.376678
-0.373425
0.378886
-0.372107
0.389778
-0.331539
0.320896
-0.158453
0.313365
0.393915
0.196089