/*--------------------------------*- C++ -*----------------------------------*\
| =========                 |                                                 |
| \\      /  F ield         | OpenFOAM: The Open Source CFD Toolbox           |
|  \\    /   O peration     | Version:  2306                                  |
|   \\  /    A nd           | Website:  www.openfoam.com                      |
|    \\/     M anipulation  |                                                 |
\*---------------------------------------------------------------------------*/
FoamFile
{
    version     2.0;
    format      ascii;
    arch        "LSB;label=32;scalar=64";
    class       volScalarField;
    location    "1.1";
    object      gradTz;
}
// * * * * * * * * * * * * * * * * * * * * * * * * * * * * * * * * * * * * * //

dimensions      [0 -1 0 1 0 0 0];

internalField   nonuniform List<scalar> 
5322
(
-0.0586495
-0.0509786
-0.038832
-0.0418956
-0.0275613
-0.0168207
-0.00950617
-0.00497782
-0.00242669
-0.00112798
-0.000549799
-0.000381689
-0.000239552
-0.000358086
-0.000411731
-0.000390532
-0.000448584
-0.000392388
-0.00066637
-0.00095603
-0.00150164
-0.0021564
-0.00329317
-0.00462275
-0.00675844
-0.00905245
-0.0126875
-0.0165473
-0.0221999
-0.0276703
-0.0355897
-0.043105
-0.0527838
-0.0602832
-0.0669671
-0.0608414
-0.0731255
-0.0711661
-0.0732769
-0.0546629
-0.0678083
-0.0700046
-0.053553
-0.0699983
-0.0692872
-0.0545318
-0.0710467
-0.0672164
-0.0540415
-0.0701712
-0.0809389
-0.0534071
-0.0755935
-0.0649865
-0.0564453
-0.0613596
-0.0776981
-0.0600698
-0.0562949
-0.0610902
-0.0784406
-0.0608697
-0.0562611
-0.0596061
-0.0784752
-0.0631192
-0.0561179
-0.0567508
-0.0771837
-0.0675938
-0.0468749
-0.0672899
-0.0640163
-0.0630395
-0.0635986
-0.0632942
-0.063249
-0.0631191
-0.0642442
-0.0616021
-0.060617
-0.0503487
-0.0522439
-0.0653029
-0.0409065
-0.0572005
-0.0869676
-0.058334
-0.0578397
-0.0492511
-0.0601312
-0.0378964
-0.0398748
-0.0398806
-0.0532898
-0.0541351
-0.0498765
-0.0548141
-0.0883634
-0.0565442
-0.0573268
-0.0498872
-0.0552648
-0.0527549
-0.0577084
-0.048587
-0.0508363
-0.0423894
-0.027919
-0.0170702
-0.00964193
-0.00503291
-0.00243396
-0.00111564
-0.000600964
-0.000427768
-0.000323249
-0.000334664
-0.000543321
-0.00035878
-0.000296609
-0.000331353
-0.000326416
-0.00044206
-0.000337805
-0.000434375
-0.000323553
-0.000338241
-0.000429868
-0.000325569
-0.000334003
-0.000435446
-0.000331067
-0.000328246
-0.000436262
-0.000333462
-0.000328042
-0.000445685
-0.000340248
-0.000437416
-0.00032621
-0.000298699
-0.000360435
-0.000331198
-0.000324581
-0.000545275
-0.000335922
-0.000335028
-0.000322227
-0.000325963
-0.000554496
-0.000336144
-0.000335088
-0.000324269
-0.000323882
-0.000553412
-0.000334671
-0.000330105
-0.000297266
-0.000413086
-0.000391144
-0.000450775
-0.000745232
-0.00104719
-0.000535099
-0.000670014
-0.000394091
-0.000457162
-0.000264465
-0.000345284
-0.000359717
-0.000337737
-0.000430979
-0.000429488
-0.000414583
-0.000715479
-0.000708206
-0.000994838
-0.000677563
-0.00099644
-0.00152981
-0.00152939
-0.00222817
-0.00152206
-0.00223528
-0.00331514
-0.00331565
-0.00471633
-0.00328762
-0.00472758
-0.0067497
-0.00675183
-0.00926096
-0.00659718
-0.0092832
-0.0127461
-0.0127572
-0.0168168
-0.0122451
-0.0168639
-0.022292
-0.0223299
-0.0282382
-0.0210109
-0.028327
-0.0360141
-0.0361139
-0.0438216
-0.0331819
-0.0439902
-0.0529411
-0.0530464
-0.0547345
-0.0883439
-0.0565136
-0.0563518
-0.0500346
-0.0676081
-0.0674666
-0.0398794
-0.0399508
-0.0532165
-0.0545905
-0.0495084
-0.0556012
-0.0883618
-0.0569096
-0.0562691
-0.0501714
-0.0544965
-0.0529899
-0.0498329
-0.0496004
-0.0423109
-0.0279424
-0.0171071
-0.00966612
-0.00504554
-0.00243977
-0.00111811
-0.000602284
-0.000428947
-0.000324188
-0.000325244
-0.000325053
-0.000323419
-0.000553493
-0.000335062
-0.000334828
-0.00030912
-0.000334695
-0.000532136
-0.000335056
-0.000554162
-0.000335667
-0.000527692
-0.000339152
-0.000430762
-0.000326646
-0.000309588
-0.000335012
-0.000431571
-0.000238868
-0.000349465
-0.000415082
-0.000414647
-0.000431562
-0.000709185
-0.000995842
-0.00153167
-0.00222963
-0.00332034
-0.00471783
-0.0067606
-0.00926271
-0.0127733
-0.0168177
-0.0223615
-0.0282299
-0.0361788
-0.0437727
-0.0534343
-0.0540982
-0.0884154
-0.0550686
-0.0498726
-0.0528279
-0.0441206
-0.0332105
-0.0360183
-0.0283807
-0.0210301
-0.0223143
-0.0168836
-0.0122555
-0.0127623
-0.00929065
-0.00660244
-0.00675911
-0.00473057
-0.0032903
-0.00332091
-0.00223614
-0.00152339
-0.0015334
-0.000996409
-0.000678063
-0.000717082
-0.000490188
-0.000717207
-0.00099682
-0.000678622
-0.000709933
-0.000432246
-0.000430715
-0.000338281
-0.000240786
-0.000362273
-0.000392998
-0.000715464
-0.000993048
-0.00152934
-0.00223635
-0.00332709
-0.00473261
-0.00679355
-0.00929419
-0.0128574
-0.0168806
-0.0225735
-0.0282632
-0.0366826
-0.0434651
-0.053841
-0.0544937
-0.0875663
-0.0581053
-0.0485031
-0.058079
-0.0479525
-0.0323678
-0.0393594
-0.0305516
-0.020459
-0.0242064
-0.0180356
-0.0118879
-0.0137797
-0.00988172
-0.00639324
-0.007283
-0.00501533
-0.00318102
-0.00356374
-0.00235837
-0.00146937
-0.00163229
-0.0010485
-0.000649974
-0.000745977
-0.000451989
-0.000414921
-0.000346901
-0.000342076
-0.000320038
-0.000457811
-0.000264666
-0.000303554
-0.000401931
-0.00038354
-0.000720987
-0.0010207
-0.000990278
-0.000994884
-0.000670743
-0.000704293
-0.000718909
-0.000399895
-0.000426986
-0.00043641
-0.000485523
-0.000473826
-0.000501856
-0.000358677
-0.000343174
-0.000526566
-0.000518961
-0.000489636
-0.000428484
-0.000417612
-0.000717205
-0.000996892
-0.0010223
-0.00153397
-0.0022364
-0.00332188
-0.00473039
-0.00464082
-0.00676456
-0.00928479
-0.0127836
-0.0168528
-0.0159464
-0.022376
-0.0282726
-0.0361502
-0.0438667
-0.039944
-0.0398692
-0.0263222
-0.0263693
-0.016118
-0.0160112
-0.022526
-0.0283277
-0.0210729
-0.0286625
-0.0360723
-0.0364871
-0.0436771
-0.0332399
-0.0447671
-0.0525254
-0.0596613
-0.0535332
-0.089724
-0.0585351
-0.0553207
-0.0520378
-0.0663802
-0.0380208
-0.0348515
-0.0467758
-0.0277611
-0.0367089
-0.029071
-0.0171238
-0.0226171
-0.0168776
-0.00986072
-0.012916
-0.00921498
-0.00529243
-0.00679334
-0.00462608
-0.0026235
-0.00331913
-0.00215813
-0.00120684
-0.00149759
-0.000948517
-0.000532602
-0.000668412
-0.000420956
-0.000401609
-0.000613295
-0.000632682
-0.000853524
-0.00137049
-0.0015414
-0.00229358
-0.00338567
-0.0048611
-0.00471558
-0.00474231
-0.00328205
-0.00333133
-0.00332635
-0.00224079
-0.0015165
-0.00221977
-0.00222846
-0.0021724
-0.000987189
-0.000844
-0.00104544
-0.000943071
-0.000894985
-0.00107693
-0.0011181
-0.000546606
-0.00038034
-0.00024749
-0.000432215
-0.000249601
-0.000397466
-0.000514126
-0.000740028
-0.00161954
-0.00238619
-0.00241827
-0.00499878
-0.00500232
-0.00347756
-0.0030316
-0.00315778
-0.0042465
-0.00618472
-0.00696145
-0.00955429
-0.0132225
-0.0173837
-0.0169473
-0.0169088
-0.0122627
-0.0128371
-0.0128408
-0.00931207
-0.00659688
-0.00929284
-0.00898425
-0.00864198
-0.0045004
-0.00392005
-0.00472024
-0.00452409
-0.0042997
-0.00227732
-0.00210529
-0.00200278
-0.00197401
-0.00144918
-0.00187541
-0.0016614
-0.00113568
-0.000554745
-0.000384762
-0.00039475
-0.00035341
-0.000504011
-0.000393031
-0.000757029
-0.000759359
-0.000997017
-0.00101822
-0.0015328
-0.00153419
-0.00223623
-0.00152499
-0.00223371
-0.0022326
-0.00332276
-0.00332482
-0.00472879
-0.0032947
-0.00473153
-0.00463822
-0.00676578
-0.00677321
-0.00928143
-0.00661331
-0.00929989
-0.00894424
-0.0127813
-0.0128033
-0.016848
-0.0122786
-0.0169083
-0.015961
-0.0223505
-0.0224256
-0.0282528
-0.021068
-0.0284354
-0.0263341
-0.0360335
-0.0362776
-0.0437712
-0.0332299
-0.0441634
-0.0398857
-0.0528345
-0.0533194
-0.0546868
-0.0497876
-0.0547227
-0.0504751
-0.0567186
-0.0547518
-0.048669
-0.0655599
-0.0419426
-0.0533298
-0.0390908
-0.0373594
-0.0439964
-0.0434968
-0.0403938
-0.0436119
-0.0441207
-0.0364809
-0.0292563
-0.0287368
-0.0172553
-0.0174961
-0.0129928
-0.00970691
-0.00963111
-0.0095558
-0.00497868
-0.00242327
-0.00112817
-0.000550411
-0.000382255
-0.000241518
-0.000358622
-0.000316218
-0.000397051
-0.000402168
-0.000340813
-0.000352027
-0.000431319
-0.000308802
-0.000377793
-0.000345825
-0.000343745
-0.000376337
-0.000298125
-0.000376599
-0.00034528
-0.000349807
-0.000434141
-0.000320896
-0.000325202
-0.000324776
-0.000320985
-0.000320212
-0.000316134
-0.000568828
-0.000324378
-0.000320813
-0.000320841
-0.000569422
-0.000324788
-0.000439593
-0.000615852
-0.000608408
-0.00052096
-0.000517464
-0.000486294
-0.00104218
-0.00228801
-0.00473412
-0.0090761
-0.0160838
-0.0153459
-0.0135959
-0.0162369
-0.015694
-0.0149494
-0.0154747
-0.0206386
-0.0234401
-0.0289975
-0.039056
-0.033655
-0.033135
-0.0246666
-0.0267462
-0.0207311
-0.0226034
-0.0228573
-0.0170397
-0.0281654
-0.0430376
-0.0613442
-0.0614042
-0.0621745
-0.0505698
-0.0457932
-0.0492368
-0.0562077
-0.049005
-0.0569113
-0.0842338
-0.0759204
-0.0721211
-0.0748037
-0.0469047
-0.0602072
-0.0630187
-0.076204
-0.0480904
-0.0620891
-0.0632366
-0.0765636
-0.0483053
-0.0613236
-0.0640694
-0.0764734
-0.0495841
-0.0609253
-0.0685113
-0.0956149
-0.0779723
-0.0763308
-0.097087
-0.0956158
-0.0752482
-0.0543347
-0.0756039
-0.0650411
-0.0564212
-0.0612389
-0.067358
-0.0540744
-0.0700619
-0.0809825
-0.0533962
-0.0606558
-0.0503769
-0.0522875
-0.0653228
-0.052962
-0.0383333
-0.0450861
-0.0359583
-0.0254434
-0.0283714
-0.0222974
-0.0153564
-0.0166868
-0.0127699
-0.00860937
-0.0091299
-0.00676605
-0.00445747
-0.00463143
-0.00331294
-0.00213897
-0.00217183
-0.00150924
-0.000941694
-0.000963164
-0.00067074
-0.000426231
-0.000457801
-0.00031749
-0.000339959
-0.000345216
-0.000451026
-0.000746596
-0.00104828
-0.00064917
-0.000715487
-0.000391675
-0.000413787
-0.000360965
-0.000240148
-0.000337325
-0.000349363
-0.000430282
-0.000400884
-0.0003881
-0.000558278
-0.00113969
-0.00244505
-0.00244479
-0.0050329
-0.00966796
-0.00908662
-0.00859655
-0.00820572
-0.00847569
-0.0118027
-0.011896
-0.00637555
-0.00697342
-0.00707005
-0.00679088
-0.00678545
-0.00465418
-0.00473257
-0.00675816
-0.0066118
-0.00929809
-0.0127645
-0.0122733
-0.0168973
-0.0223195
-0.0210493
-0.028378
-0.0360143
-0.0331914
-0.0439507
-0.0360124
-0.0366601
-0.0521687
-0.0521775
-0.0431823
-0.0281106
-0.0170071
-0.00954778
-0.00498074
-0.00242749
-0.00113111
-0.000553629
-0.000385375
-0.000240895
-0.000348822
-0.000399514
-0.000382398
-0.000551213
-0.00112982
-0.00243161
-0.00499857
-0.00958543
-0.0170706
-0.0282165
-0.0432619
-0.0623587
-0.0618873
-0.0534786
-0.104512
-0.0761544
-0.0730138
-0.0632731
-0.0765279
-0.0483596
-0.0484923
-0.0524454
-0.0786588
-0.0498676
-0.050633
-0.0516258
-0.0790896
-0.0500974
-0.0508572
-0.0513357
-0.0790244
-0.0516298
-0.0525379
-0.058196
-0.100807
-0.0788915
-0.0769423
-0.0772781
-0.0766197
-0.0599469
-0.0552448
-0.0584631
-0.100438
-0.0577836
-0.0608626
-0.0783889
-0.0609438
-0.0562181
-0.0594843
-0.0703781
-0.0535176
-0.0696073
-0.0696422
-0.0546595
-0.0707865
-0.0602337
-0.0562687
-0.0608677
-0.0633463
-0.063131
-0.0636749
-0.0628615
-0.0562923
-0.0574069
-0.0625055
-0.078543
-0.0682311
-0.0551694
-0.0727162
-0.0639962
-0.0551819
-0.0880285
-0.0469846
-0.0596956
-0.0487518
-0.0551077
-0.0475472
-0.0359396
-0.0397113
-0.0323211
-0.0242332
-0.0254086
-0.0202499
-0.0144086
-0.0152296
-0.0115384
-0.00827563
-0.00831208
-0.00616933
-0.00417141
-0.00425369
-0.00299647
-0.00204087
-0.00197418
-0.00137452
-0.000886479
-0.000865145
-0.000608883
-0.000402205
-0.000400876
-0.000246854
-0.000426821
-0.00031385
-0.000245368
-0.000441212
-0.00032539
-0.000336632
-0.000432266
-0.000322851
-0.00033649
-0.000427857
-0.000324029
-0.000333204
-0.000433581
-0.00033049
-0.000326002
-0.000433842
-0.000241163
-0.00033924
-0.000429948
-0.000415302
-0.000488643
-0.000713321
-0.000675729
-0.000994177
-0.000991704
-0.00101355
-0.00152112
-0.00146153
-0.00222394
-0.00234636
-0.00186845
-0.00354446
-0.00260916
-0.00497824
-0.00389078
-0.00721579
-0.00523477
-0.00979335
-0.00749885
-0.0136063
-0.00972372
-0.0177937
-0.0133531
-0.0236847
-0.0166616
-0.0299247
-0.0220006
-0.0381533
-0.0264658
-0.0466244
-0.0335614
-0.05628
-0.0387407
-0.045566
-0.0534453
-0.0522292
-0.0398834
-0.0447266
-0.0316372
-0.0365389
-0.0354729
-0.0261112
-0.0288345
-0.0199802
-0.0226525
-0.0220695
-0.0158492
-0.0171756
-0.0116772
-0.0130083
-0.012683
-0.00889611
-0.00947383
-0.0062905
-0.00688484
-0.0067356
-0.00461736
-0.00482007
-0.00313754
-0.00337583
-0.00331149
-0.0022198
-0.00227881
-0.00144409
-0.00154136
-0.00152512
-0.00100922
-0.00101228
-0.000632833
-0.000721403
-0.000700521
-0.000483192
-0.00037986
-0.000301039
-0.000262958
-0.000343993
-0.000338732
-0.000316004
-0.000455188
-0.000422291
-0.000500782
-0.000352206
-0.000393169
-0.000399101
-0.000346692
-0.00042826
-0.000413566
-0.000428998
-0.00048356
-0.000711183
-0.000646795
-0.00104354
-0.000842876
-0.00162513
-0.00120298
-0.00165887
-0.000756685
-0.000758982
-0.000707154
-0.000514822
-0.000524189
-0.00033356
-0.000552011
-0.000334145
-0.000307449
-0.000375763
-0.000348411
-0.000344521
-0.000349447
-0.000344864
-0.000531907
-0.000520923
-0.000489702
-0.00104626
-0.00104539
-0.00102399
-0.00153353
-0.00153293
-0.00101201
-0.00165894
-0.000762088
-0.000762898
-0.000710716
-0.000679346
-0.000998972
-0.00153095
-0.00152528
-0.00223642
-0.0033191
-0.00329443
-0.00363207
-0.00229363
-0.00224227
-0.00474482
-0.00909572
-0.0089725
-0.00908084
-0.00473952
-0.00229251
-0.0022376
-0.0022822
-0.00103975
-0.00101581
-0.000989388
-0.00152552
-0.00162953
-0.00235236
-0.00355183
-0.00498939
-0.0026157
-0.00331225
-0.0018728
-0.00216892
-0.00120787
-0.00150852
-0.000845828
-0.000961558
-0.000939269
-0.000893246
-0.00137805
-0.00145043
-0.00198728
-0.00228361
-0.00222606
-0.00331726
-0.00326423
-0.00469144
-0.00471848
-0.00463266
-0.00671771
-0.00656691
-0.00923106
-0.00923557
-0.00888705
-0.0126404
-0.0121448
-0.0167215
-0.0167346
-0.0157888
-0.0220823
-0.0200982
-0.02804
-0.0355278
-0.0317723
-0.0435951
-0.0517914
-0.0458251
-0.0510526
-0.0425031
-0.0279304
-0.0170596
-0.00963227
-0.00502706
-0.00243081
-0.00111412
-0.000600031
-0.000426919
-0.000323032
-0.000323383
-0.000324965
-0.000334938
-0.000529899
-0.000519522
-0.000517419
-0.000524136
-0.000333845
-0.000307451
-0.000376932
-0.000341565
-0.000356771
-0.000342071
-0.00052597
-0.000516053
-0.00048476
-0.00071375
-0.000648896
-0.000737992
-0.000736689
-0.000608475
-0.000433987
-0.000321411
-0.000320616
-0.000569344
-0.000316543
-0.000321189
-0.000552814
-0.000736356
-0.00104216
-0.000985016
-0.000472343
-0.000499053
-0.00072598
-0.000485531
-0.000702008
-0.00066891
-0.000989726
-0.00099107
-0.00102192
-0.001527
-0.00152001
-0.00222916
-0.00223202
-0.0033052
-0.0032754
-0.00470811
-0.00470213
-0.00461072
-0.00672961
-0.00633705
-0.00922315
-0.0126816
-0.011742
-0.016722
-0.0159892
-0.00902483
-0.00471018
-0.00227733
-0.00103744
-0.000734981
-0.000607333
-0.000433052
-0.000737349
-0.00112537
-0.000738406
-0.000740045
-0.000737337
-0.000738125
-0.0011252
-0.00104597
-0.00102304
-0.0022923
-0.00223869
-0.00473918
-0.00464315
-0.00501724
-0.00961877
-0.0171358
-0.0172512
-0.0285473
-0.0268613
-0.0259068
-0.0404763
-0.0552982
-0.0486309
-0.070723
-0.0549159
-0.107013
-0.0747394
-0.0734925
-0.0673552
-0.0848008
-0.0781004
-0.0804231
-0.0777028
-0.106396
-0.0738405
-0.0729203
-0.0632414
-0.0761851
-0.0482148
-0.0492345
-0.0530586
-0.0782367
-0.0496525
-0.0515226
-0.0524216
-0.0786641
-0.049886
-0.0515965
-0.0522737
-0.0785894
-0.051523
-0.0529337
-0.0714259
-0.0508448
-0.0398853
-0.0398981
-0.0440208
-0.0469107
-0.0321616
-0.0389327
-0.0270628
-0.0323701
-0.0374423
-0.0261978
-0.035312
-0.0441432
-0.0400047
-0.0514721
-0.0561239
-0.0439834
-0.0414344
-0.0365543
-0.0467869
-0.0467204
-0.0615915
-0.0643095
-0.0630239
-0.0519702
-0.0397024
-0.0514196
-0.0470369
-0.0516455
-0.0396222
-0.0514037
-0.0470857
-0.0517175
-0.0397509
-0.0514938
-0.0641419
-0.0627488
-0.0564399
-0.0537374
-0.0646863
-0.0790345
-0.059911
-0.0777821
-0.0788897
-0.0757269
-0.0608464
-0.057791
-0.0582093
-0.099949
-0.0585249
-0.065178
-0.0968986
-0.079781
-0.0763464
-0.0599581
-0.057822
-0.0717962
-0.0526725
-0.0524041
-0.0709011
-0.0498536
-0.0425151
-0.0423964
-0.027925
-0.0170747
-0.00964456
-0.00503437
-0.00243465
-0.00111596
-0.000601136
-0.000427905
-0.000316637
-0.000320862
-0.000382631
-0.000344625
-0.000342648
-0.000429489
-0.000338019
-0.000297489
-0.000330381
-0.000358885
-0.000334786
-0.00029677
-0.000326452
-0.000442951
-0.000338074
-0.000499252
-0.000324329
-0.000434256
-0.000357036
-0.00037539
-0.000341527
-0.00052435
-0.000333933
-0.000335154
-0.000553027
-0.000324337
-0.000324182
-0.000335311
-0.000333093
-0.000306837
-0.000330156
-0.000438259
-0.000330623
-0.000529833
-0.000519774
-0.000517457
-0.000472645
-0.000394885
-0.000505332
-0.000353395
-0.000395706
-0.000384372
-0.000554846
-0.00113735
-0.00244597
-0.00502501
-0.00963198
-0.0171479
-0.0283328
-0.0283265
-0.0434838
-0.0436406
-0.0618969
-0.0539959
-0.0561201
-0.0563988
-0.088472
-0.0649406
-0.0737709
-0.0760986
-0.104233
-0.0532839
-0.0563332
-0.0564714
-0.0543605
-0.0573295
-0.0582865
-0.0869813
-0.0554218
-0.0572024
-0.0492773
-0.0578423
-0.0693611
-0.0537069
-0.0400023
-0.0434073
-0.0624504
-0.0622318
-0.0519975
-0.0524352
-0.037214
-0.0230728
-0.0132583
-0.00711232
-0.00355314
-0.00350768
-0.00164905
-0.00164945
-0.000759992
-0.000760181
-0.00105149
-0.00228416
-0.00470831
-0.00902239
-0.0160395
-0.0264237
-0.0363366
-0.035837
-0.0360104
-0.0225252
-0.0130311
-0.00700638
-0.00699261
-0.00350479
-0.00354557
-0.00166423
-0.0015288
-0.00163222
-0.00235425
-0.00355658
-0.00499256
-0.00316953
-0.0033195
-0.00223134
-0.00146609
-0.00170334
-0.00104029
-0.00101763
-0.000990585
-0.000516529
-0.000526124
-0.000326104
-0.000485896
-0.000736559
-0.000738327
-0.000543533
-0.000323404
-0.000321816
-0.000377348
-0.000348155
-0.000353059
-0.000382877
-0.00031718
-0.000570031
-0.000382571
-0.000376475
-0.000308633
-0.000375241
-0.000382372
-0.000343536
-0.000340876
-0.000343287
-0.000355602
-0.000340607
-0.000342971
-0.000377046
-0.000374497
-0.000322357
-0.000334268
-0.00035746
-0.000541941
-0.000329397
-0.000296115
-0.000736458
-0.000736237
-0.000607562
-0.000433024
-0.000737446
-0.000736895
-0.00104257
-0.000985703
-0.000847429
-0.00216681
-0.00187574
-0.00228321
-0.00223023
-0.00472253
-0.0046288
-0.0047215
-0.00676259
-0.00724975
-0.00981684
-0.013695
-0.0178536
-0.0118129
-0.0127687
-0.00927342
-0.00636172
-0.00731728
-0.00448177
-0.0039048
-0.00858969
-0.007531
-0.00905137
-0.00891848
-0.00908047
-0.00894579
-0.0160858
-0.0159575
-0.0263262
-0.0263162
-0.0251683
-0.0226918
-0.0266424
-0.0231385
-0.0135662
-0.00734649
-0.00367793
-0.00170786
-0.00169001
-0.00166987
-0.00244892
-0.00362874
-0.00357058
-0.00506071
-0.00723608
-0.00710767
-0.00506091
-0.00244904
-0.00169177
-0.00168799
-0.00166794
-0.00113307
-0.00245747
-0.00507423
-0.00971247
-0.00969099
-0.0133393
-0.0130797
-0.0171457
-0.0227083
-0.022225
-0.0280054
-0.0356049
-0.0363256
-0.039805
-0.0672736
-0.0489464
-0.0712419
-0.0508117
-0.0495789
-0.0672547
-0.0512732
-0.0703323
-0.0760055
-0.0804898
-0.0774542
-0.105595
-0.0737089
-0.0651265
-0.0612273
-0.0802374
-0.0811589
-0.0582402
-0.0653582
-0.076664
-0.0811107
-0.0753534
-0.0737061
-0.104985
-0.07779
-0.0807398
-0.0808705
-0.0810816
-0.0807895
-0.0774849
-0.0803325
-0.0719658
-0.0640707
-0.0764729
-0.0496058
-0.0483105
-0.0522856
-0.078611
-0.0514797
-0.0504473
-0.0513501
-0.0790706
-0.0515421
-0.050681
-0.0510464
-0.0789614
-0.0527591
-0.0583591
-0.100291
-0.0812141
-0.0759494
-0.0610871
-0.057726
-0.070926
-0.0498361
-0.0425095
-0.0279995
-0.0171218
-0.00967376
-0.00505126
-0.00244434
-0.00112326
-0.00168681
-0.00170255
-0.00146574
-0.00222878
-0.00331409
-0.00316937
-0.00471661
-0.00675378
-0.00724174
-0.00981206
-0.0136825
-0.0178467
-0.00977148
-0.0127734
-0.00752264
-0.00912746
-0.00525553
-0.00676689
-0.0038997
-0.00462813
-0.00445105
-0.00423667
-0.00615814
-0.00631316
-0.00836894
-0.00948375
-0.00891223
-0.0126937
-0.012122
-0.0167559
-0.0167554
-0.0158425
-0.0219573
-0.0207619
-0.0280344
-0.0260043
-0.035306
-0.0327479
-0.0435644
-0.0436648
-0.0396649
-0.0517683
-0.0470921
-0.0515501
-0.051603
-0.0396571
-0.0435656
-0.0436064
-0.0514786
-0.0470271
-0.0497332
-0.0398883
-0.0262401
-0.0160257
-0.00904966
-0.00472477
-0.00228552
-0.00216529
-0.00447884
-0.00472079
-0.00462389
-0.00904836
-0.00891057
-0.0092645
-0.012755
-0.0118146
-0.0168378
-0.022313
-0.023961
-0.0300658
-0.0389038
-0.0469225
-0.0270591
-0.0359817
-0.0222771
-0.0283758
-0.0168508
-0.0223071
-0.0134373
-0.0166868
-0.0153408
-0.014616
-0.0202793
-0.0201994
-0.0259021
-0.0287371
-0.0261985
-0.0353151
-0.0327051
-0.0441093
-0.0434475
-0.0397064
-0.0519273
-0.0468828
-0.0514942
-0.0560958
-0.0400108
-0.043973
-0.0413958
-0.0467531
-0.0466882
-0.0493051
-0.0428185
-0.0365141
-0.0383031
-0.0450921
-0.0529948
-0.0340982
-0.0399041
-0.0263428
-0.0159845
-0.00898822
-0.00468819
-0.00227285
-0.00104551
-0.000502567
-0.000352924
-0.000339965
-0.000317297
-0.000247967
-0.000302558
-0.000403141
-0.000381249
-0.000428932
-0.00024582
-0.000314041
-0.000425456
-0.000434885
-0.000398007
-0.000488669
-0.00070858
-0.000677354
-0.000993607
-0.00102012
-0.00152612
-0.00151771
-0.00222894
-0.00222191
-0.00222239
-0.00330528
-0.00316006
-0.00470222
-0.00353134
-0.00349118
-0.00330621
-0.00164743
-0.00152671
-0.00113038
-0.00112875
-0.000549657
-0.00038158
-0.000397695
-0.000357353
-0.000379867
-0.000398548
-0.000515904
-0.000405225
-0.000611146
-0.000636284
-0.00101499
-0.00101312
-0.00152839
-0.00151093
-0.00221476
-0.00223189
-0.00223611
-0.00330719
-0.0032789
-0.00471171
-0.00462316
-0.00671705
-0.00656181
-0.00922711
-0.00922625
-0.00887211
-0.0126391
-0.0127191
-0.00692365
-0.00671713
-0.00495673
-0.00495297
-0.00242091
-0.00165915
-0.00153098
-0.00076409
-0.000718152
-0.000547816
-0.000745619
-0.000871199
-0.00108381
-0.00112236
-0.00162666
-0.00154953
-0.00239148
-0.0020301
-0.00301505
-0.00314441
-0.00483127
-0.00462618
-0.00674464
-0.00654392
-0.00921776
-0.00924941
-0.00890758
-0.0126352
-0.0121516
-0.0167334
-0.0158046
-0.021983
-0.0207598
-0.028025
-0.0280728
-0.0259966
-0.0353008
-0.0262067
-0.0226368
-0.0132874
-0.0130625
-0.00967679
-0.00505285
-0.0024451
-0.00112371
-0.00166816
-0.00168809
-0.00362428
-0.003666
-0.00228657
-0.00472713
-0.0090542
-0.0135034
-0.0133241
-0.00722695
-0.0071009
-0.00356694
-0.00362235
-0.00168767
-0.00152068
-0.00152992
-0.00102013
-0.00152718
-0.00223124
-0.00223256
-0.00330518
-0.00330956
-0.00222996
-0.00223002
-0.00223633
-0.00330712
-0.00331405
-0.00223213
-0.0015306
-0.00102165
-0.00152702
-0.000996599
-0.000994288
-0.000995215
-0.000993752
-0.00101955
-0.00152502
-0.00152666
-0.0015194
-0.00222516
-0.00223265
-0.0033049
-0.0033061
-0.00327823
-0.00470464
-0.00462784
-0.00672214
-0.0067162
-0.00671408
-0.0067215
-0.00462371
-0.00471416
-0.00471223
-0.00328041
-0.00471252
-0.00463382
-0.00671742
-0.00673829
-0.00471905
-0.00326721
-0.00331761
-0.00338922
-0.00222634
-0.00221631
-0.00151221
-0.00152836
-0.00155175
-0.00101309
-0.00099018
-0.000991216
-0.00071752
-0.000488249
-0.000708593
-0.000677709
-0.000715532
-0.000488563
-0.000713795
-0.00067702
-0.000708729
-0.000487129
-0.000714363
-0.00099007
-0.00098541
-0.000667346
-0.000761692
-0.000545461
-0.000379664
-0.000241165
-0.000354862
-0.000340582
-0.000349029
-0.000349906
-0.000241141
-0.000381753
-0.000401783
-0.000340484
-0.000356359
-0.000241722
-0.000435408
-0.000331706
-0.000325317
-0.00030725
-0.000429639
-0.000427114
-0.000415475
-0.000416088
-0.000425531
-0.000397989
-0.000432422
-0.000423926
-0.000295655
-0.000330598
-0.000434132
-0.000325028
-0.000523187
-0.000516474
-0.00104083
-0.00104422
-0.00228723
-0.00472656
-0.00722073
-0.00656986
-0.00923492
-0.00888701
-0.0126315
-0.0126462
-0.0126342
-0.0126933
-0.00890952
-0.00924032
-0.00925035
-0.00655013
-0.0067455
-0.00691683
-0.00462684
-0.00469512
-0.00483332
-0.00314899
-0.00301958
-0.00425599
-0.00424382
-0.00616597
-0.00838123
-0.00820425
-0.0116352
-0.0152852
-0.0146372
-0.0203021
-0.0259314
-0.0242137
-0.0325157
-0.0344731
-0.0282473
-0.0217682
-0.0171068
-0.0127314
-0.00959057
-0.00690457
-0.00497799
-0.00347061
-0.00239434
-0.00203269
-0.00199169
-0.00228423
-0.00145291
-0.00137992
-0.000873149
-0.000895301
-0.00108494
-0.00162787
-0.000745929
-0.000612058
-0.000637422
-0.000726665
-0.000485344
-0.000701948
-0.000669375
-0.000764582
-0.000546688
-0.00037973
-0.000246151
-0.000314546
-0.000429025
-0.000248173
-0.000403679
-0.00040551
-0.000515979
-0.000398516
-0.00030284
-0.000381395
-0.000434723
-0.000398459
-0.000425281
-0.000397342
-0.00038053
-0.000547007
-0.00112423
-0.00112054
-0.00241663
-0.00496721
-0.00950304
-0.00891311
-0.0126958
-0.0130692
-0.00948773
-0.00922482
-0.0069919
-0.00352221
-0.00166143
-0.00165911
-0.00241296
-0.00493749
-0.00941879
-0.0128702
-0.0121336
-0.0167556
-0.0158457
-0.0219525
-0.0221156
-0.0220642
-0.0229075
-0.0158832
-0.0167687
-0.017205
-0.0117411
-0.00977607
-0.0131231
-0.0129859
-0.0224094
-0.0226612
-0.02233
-0.0239808
-0.0300702
-0.022295
-0.0249682
-0.0152277
-0.0134501
-0.016042
-0.0159076
-0.0168546
-0.0262812
-0.0262628
-0.0283334
-0.0202955
-0.0230291
-0.016033
-0.0262495
-0.0362225
-0.0356217
-0.0226928
-0.0222199
-0.0130701
-0.0133069
-0.0171267
-0.0171773
-0.0171458
-0.00969127
-0.00724242
-0.00722645
-0.00362406
-0.00356647
-0.0036205
-0.00366431
-0.00731406
-0.00636239
-0.00707509
-0.00354451
-0.00350644
-0.00351911
-0.00353463
-0.00165561
-0.00164927
-0.000759283
-0.000758536
-0.00039426
-0.00166236
-0.00702698
-0.00699832
-0.0129982
-0.0130623
-0.0131727
-0.0225504
-0.0224307
-0.0226818
-0.0131316
-0.0282998
-0.036092
-0.0321711
-0.043954
-0.0363771
-0.0358725
-0.0520596
-0.0521709
-0.0536747
-0.0694659
-0.09567
-0.0970435
-0.0543282
-0.0684956
-0.0956317
-0.0779588
-0.0599624
-0.0765935
-0.077446
-0.0609603
-0.0581846
-0.100989
-0.0794276
-0.0768021
-0.100874
-0.0859505
-0.0860254
-0.0809275
-0.0760558
-0.0514956
-0.0705313
-0.049685
-0.0424143
-0.028005
-0.0227245
-0.0133503
-0.0133227
-0.0160851
-0.0160371
-0.0158947
-0.0262741
-0.0262454
-0.0249577
-0.0152197
-0.00858454
-0.0130562
-0.0171977
-0.0158817
-0.0220617
-0.0207391
-0.0282201
-0.0280374
-0.026064
-0.0352202
-0.032725
-0.0353042
-0.0262202
-0.0160138
-0.0133004
-0.0134977
-0.0230206
-0.0203001
-0.0226897
-0.0222172
-0.0130683
-0.00709991
-0.00721704
-0.00472372
-0.00228585
-0.00104342
-0.00153085
-0.00165443
-0.00222855
-0.000763455
-0.000996318
-0.000716083
-0.000402146
-0.000427428
-0.000350618
-0.000239512
-0.000384334
-0.000552507
-0.00350152
-0.00351649
-0.0033136
-0.00241955
-0.00346786
-0.0042487
-0.00497224
-0.00497254
-0.0068993
-0.00690903
-0.00958021
-0.00819279
-0.0116211
-0.0117265
-0.0152644
-0.0127216
-0.0170889
-0.0168781
-0.00951298
-0.00697968
-0.00673639
-0.00693992
-0.00672118
-0.00944796
-0.0128464
-0.0126887
-0.0127471
-0.0167365
-0.0167124
-0.0218773
-0.0221056
-0.0217526
-0.0228871
-0.0282206
-0.0241822
-0.0324848
-0.0323422
-0.037416
-0.0344531
-0.0277688
-0.0422459
-0.0566056
-0.0569048
-0.0586058
-0.0640663
-0.0598166
-0.0490695
-0.0343914
-0.0355802
-0.0273778
-0.0415554
-0.0558261
-0.0648711
-0.0607971
-0.0485097
-0.033846
-0.0216268
-0.0280633
-0.0219884
-0.01671
-0.00945091
-0.027365
-0.0415674
-0.0559148
-0.0651304
-0.0608713
-0.0485231
-0.0338074
-0.0215835
-0.02198
-0.0219651
-0.0129149
-0.00701954
-0.00466709
-0.00226571
-0.00104195
-0.000931572
-0.0021501
-0.00892098
-0.0157638
-0.025771
-0.0345095
-0.049257
-0.0563076
-0.0664424
-0.0606681
-0.0502783
-0.0560896
-0.0592422
-0.0558304
-0.0416576
-0.0413361
-0.0272389
-0.01663
-0.00940127
-0.00492724
-0.00240688
-0.00112096
-0.00112381
-0.000548358
-0.000765098
-0.000764136
-0.000401207
-0.000429157
-0.000395659
-0.000377856
-0.000543582
-0.00111451
-0.00165667
-0.00150843
-0.00220803
-0.00222973
-0.00228338
-0.0016863
-0.00166659
-0.000736793
-0.00168411
-0.00169945
-0.000982582
-0.000470878
-0.00049745
-0.00074304
-0.000532343
-0.00216103
-0.00365862
-0.00361982
-0.00356374
-0.00361551
-0.00720826
-0.00709523
-0.00721667
-0.0047217
-0.00904617
-0.00905027
-0.0160218
-0.0226581
-0.0207702
-0.021994
-0.0158021
-0.0219589
-0.0280667
-0.0259953
-0.0352372
-0.0353198
-0.0280149
-0.0280942
-0.0260658
-0.0352005
-0.0355994
-0.028032
-0.0207582
-0.028241
-0.0287473
-0.0202225
-0.0168562
-0.0219186
-0.0168612
-0.027742
-0.0422023
-0.0428455
-0.0493157
-0.0569026
-0.0586219
-0.0565529
-0.0640988
-0.0598158
-0.0491313
-0.0344533
-0.0272966
-0.016662
-0.0216868
-0.0127836
-0.016754
-0.0167291
-0.0167446
-0.0167289
-0.0158378
-0.0220347
-0.0219745
-0.0207684
-0.0280435
-0.0260705
-0.0354004
-0.0352918
-0.0327494
-0.0435577
-0.0437347
-0.0436289
-0.0327174
-0.0362075
-0.0356216
-0.0280056
-0.0280503
-0.0347852
-0.0424153
-0.0398792
-0.0399742
-0.0675868
-0.0501689
-0.0484329
-0.0703658
-0.0759338
-0.0800805
-0.0775169
-0.0808853
-0.0811199
-0.0754405
-0.0505586
-0.0693918
-0.0480509
-0.0675545
-0.0678194
-0.0675581
-0.067866
-0.0677441
-0.0608874
-0.079787
-0.105026
-0.0544902
-0.0780964
-0.0842227
-0.0807868
-0.086104
-0.0809389
-0.0763425
-0.102149
-0.0783079
-0.0529331
-0.0584201
-0.100504
-0.0578369
-0.0707624
-0.0526696
-0.0682072
-0.0481807
-0.0424719
-0.0348104
-0.0356161
-0.035624
-0.0362122
-0.0355778
-0.0226487
-0.0355914
-0.0348446
-0.0222179
-0.0226604
-0.0133023
-0.0134772
-0.0160253
-0.0262624
-0.0262286
-0.0355874
-0.0398949
-0.0379069
-0.0341179
-0.0577529
-0.0409139
-0.0521389
-0.0526906
-0.0485525
-0.0520067
-0.0601283
-0.0677433
-0.0499451
-0.0483
-0.0705539
-0.0496923
-0.0481834
-0.0678611
-0.0504433
-0.0695957
-0.075571
-0.0760329
-0.0802867
-0.0721111
-0.0797501
-0.10496
-0.0780895
-0.0808099
-0.0809373
-0.0810543
-0.0812363
-0.0755667
-0.0508672
-0.0695955
-0.077752
-0.0811086
-0.0777324
-0.0757093
-0.0507747
-0.0698036
-0.0483168
-0.0681988
-0.0684912
-0.061988
-0.0399306
-0.0398804
-0.0617811
-0.0614764
-0.0379688
-0.0400072
-0.0398802
-0.0497359
-0.0614451
-0.0616888
-0.062004
-0.0572732
-0.0656026
-0.0482935
-0.0338088
-0.0274901
-0.0167709
-0.00946873
-0.00495021