/*--------------------------------*- C++ -*----------------------------------*\
| =========                 |                                                 |
| \\      /  F ield         | OpenFOAM: The Open Source CFD Toolbox           |
|  \\    /   O peration     | Version:  2306                                  |
|   \\  /    A nd           | Website:  www.openfoam.com                      |
|    \\/     M anipulation  |                                                 |
\*---------------------------------------------------------------------------*/
FoamFile
{
    version     2.0;
    format      ascii;
    arch        "LSB;label=32;scalar=64";
    class       volScalarField;
    location    "1.1";
    object      gradTx;
}
// * * * * * * * * * * * * * * * * * * * * * * * * * * * * * * * * * * * * * //

dimensions      [0 -1 0 1 0 0 0];

internalField   nonuniform List<scalar> 
5322
(
-0.0174642
0.00120699
0.00120329
-2.65366e-05
-8.01795e-05
-5.87217e-05
-3.35517e-05
-1.75528e-05
-9.03089e-06
-3.84211e-06
-7.95463e-07
5.29436e-06
6.20249e-06
-7.86237e-05
1.5853e-06
0.000173296
-0.000131414
9.46655e-06
-0.000121906
0.000175936
-0.000225616
0.000435241
-0.00045094
0.000941647
-0.000985161
0.00179283
-0.00180371
0.00328463
-0.00333682
0.00539056
-0.0051225
0.0087947
-0.00643081
0.0140687
0.0017206
0.0223861
0.0159107
-0.00630067
0.0173114
-0.001051
-0.0164478
0.0164649
-0.000994878
-0.0174966
0.0174307
-0.000584836
-0.0185861
0.0164573
-0.000364298
-0.0195281
-0.0194522
-0.0278015
-0.00943509
0.0171188
-0.00113475
-0.0277957
-0.000877413
0.026364
-0.000312438
-0.0263477
-0.000109386
0.0256722
-0.000125743
-0.0258814
4.31771e-05
0.02535
0.000401784
-0.0256417
0.00146469
0.0212176
0.00140567
-0.0191976
0.0218311
-0.0224488
0.0215971
-0.0220045
0.0220185
-0.02205
0.0251443
-0.0185886
0.00855329
-0.0142903
-0.00983703
0.0145986
0.00109327
-0.00557395
0.0111037
-0.0310683
-0.00901377
0.0329299
-0.00152393
0.000220819
0.000362755
0.00309936
0.017585
-0.0031202
0.000668898
-0.000793756
0.0114139
-0.0273869
-0.027301
0.0539786
-0.000834511
0.0136309
0.0222898
0.00092495
0.000307118
0.000187453
8.10984e-05
1.8944e-05
-4.17453e-06
-9.04608e-06
-7.74707e-06
-4.82482e-06
-1.48116e-06
-1.52791e-06
-5.43116e-05
-4.92837e-05
8.40617e-06
2.77904e-05
-4.50411e-07
3.86598e-05
-4.73465e-05
-4.24685e-06
-1.47732e-05
7.39879e-05
5.84089e-05
1.31518e-05
4.67384e-05
2.7299e-05
1.95183e-05
5.03903e-05
2.19395e-05
2.39263e-05
5.11517e-05
1.82704e-05
4.01241e-05
5.82127e-05
6.4045e-05
2.28999e-06
-5.02523e-05
5.04651e-07
3.60108e-05
-4.81002e-05
-5.54303e-05
1.05818e-05
1.74158e-05
6.83733e-06
-4.29248e-05
-4.79547e-05
1.23819e-05
8.56917e-06
1.18789e-05
-4.76419e-05
-4.35819e-05
1.26262e-05
3.3945e-06
2.23384e-05
-4.65074e-05
6.13102e-05
-0.000154092
-0.000197427
0.000254042
-0.000404399
-2.61282e-05
-0.000187334
4.86877e-06
0.000149797
-3.28418e-05
0.000129749
6.30066e-05
9.58838e-05
-0.000185305
6.25813e-05
-0.000161091
0.000151048
0.000196407
-0.000343885
3.75311e-05
-0.000293277
0.000385608
0.000481215
-0.000756413
5.68296e-05
-0.00063589
0.000883004
0.00108315
-0.00159862
0.00011701
-0.00133742
0.00184077
0.00224377
-0.00316495
0.000221897
-0.00264707
0.00349943
0.00427579
-0.00585426
0.000386555
-0.0049028
0.00607884
0.00749592
-0.010088
0.000631605
-0.00842906
0.00963482
0.0120738
-0.0159466
0.000988757
-0.013141
0.0136011
0.0169221
-0.00271584
0.0109265
-0.0270923
-0.0276361
0.0541797
-0.00249136
-0.00264139
0.00043674
0.00337569
0.0175271
-0.00219401
0.000848493
-0.00275096
0.0105091
-0.0275344
-0.0271792
0.053845
-0.00119928
0.0136185
0.00064472
0.00047948
0.000220077
0.000105979
3.23941e-05
1.35918e-06
-7.18016e-06
-7.29866e-06
-4.68845e-06
-1.57047e-06
-1.56392e-06
4.04125e-05
-4.64645e-05
4.70218e-05
-3.98509e-05
7.34092e-07
3.95546e-05
-3.50846e-05
4.73255e-07
-3.91782e-05
1.7612e-07
-3.88797e-05
2.334e-08
3.57268e-05
1.28714e-06
3.59758e-05
-3.43571e-06
-4.00974e-05
-2.2012e-07
3.93635e-05
6.63854e-08
1.39916e-07
7.80044e-05
-0.000165382
0.000166026
-0.000161924
0.000245057
-0.000362841
0.000573401
-0.000838323
0.00126528
-0.0017953
0.00259438
-0.00354928
0.00493279
-0.0064792
0.0086935
-0.0109002
0.0141279
-0.0166333
0.0208163
-0.0125393
0.000334186
0.0127212
0.0003772
-0.0202606
0.0162168
9.96137e-05
-0.0136885
0.0106919
5.63802e-05
-0.00841468
0.00637673
3.20182e-05
-0.00477034
0.00349785
1.73482e-05
-0.00250608
0.00177083
9.27878e-06
-0.00121985
0.000828218
5.04204e-06
-0.000550793
0.000361265
2.65218e-06
-0.000234156
6.05813e-07
0.000235648
-0.000358921
-1.3698e-06
-0.000243498
0.000162759
-6.22083e-07
-7.85577e-05
-5.35305e-06
7.87879e-05
-0.000171757
0.000232448
-0.000359449
0.0005424
-0.000814714
0.00120736
-0.00173284
0.00249103
-0.00341188
0.00476509
-0.00620694
0.00846928
-0.0103821
0.0138997
-0.0156203
0.0205245
-0.0123947
-0.00321783
0.005138
0.000548942
-0.0191303
0.0143214
8.48373e-05
-0.012528
0.00969904
-6.92176e-05
-0.0074486
0.00571969
-7.73067e-05
-0.00418689
0.00310513
-5.45149e-05
-0.00220067
0.00156738
-3.69285e-05
-0.00107138
0.000736741
-2.37899e-05
-0.000482678
0.000324995
-1.55938e-05
-0.000204451
0.000131198
-1.0276e-06
-3.95398e-05
6.21429e-05
0.000104541
-1.64963e-05
6.94651e-06
-2.03974e-05
6.72215e-05
-0.000211563
0.000225119
-0.000413091
-0.000278168
-0.000351143
3.88336e-05
0.000158336
0.000177603
-0.000182658
5.92327e-05
-0.00015836
-2.13283e-05
-4.70971e-07
-5.30527e-05
3.50826e-06
-2.72058e-06
-5.21301e-05
-1.06768e-05
-2.06794e-05
-0.000165836
-0.000180413
0.00018329
-0.000341838
-3.49977e-05
0.000465374
-0.000753546
0.00106342
-0.00159354
-0.000160552
0.00221805
-0.00315713
0.0042356
-0.00584193
-0.000183892
0.00741795
-0.0100235
0.0118702
-0.0156121
0.00324218
0.000431773
-2.25499e-06
3.13516e-05
-0.000183838
-0.000165333
0.00771074
-0.0102957
0.000704812
-0.00834839
0.00900534
0.0124318
-0.0156737
0.00120111
-0.0137901
0.0120957
0.0243565
-0.00159688
0.00159109
-0.0297386
-0.0277006
0.0517152
-0.0036121
0.000412254
0.000774906
-0.0111113
0.00203336
0.00556229
-0.00579809
0.000333448
0.00364783
-0.00322105
-1.2548e-05
0.00197064
-0.00180366
-4.11191e-05
0.000945959
-0.000911573
-4.47752e-05
0.000472562
-0.000424109
-3.70842e-05
0.000222036
-0.000163937
-2.61923e-05
0.00012755
3.89311e-05
2.54508e-05
-1.12545e-06
-8.58353e-07
9.38151e-05
-3.96579e-05
0.000573133
-0.000910124
0.00131998
-0.00193508
-0.00124678
-0.00163756
0.000119833
0.000869569
0.00109191
-0.000772826
5.8223e-05
-0.000589365
-6.40051e-05
-3.31877e-05
-1.36264e-05
-2.09909e-05
-3.8521e-05
1.76507e-05
5.35506e-06
-4.10206e-05
-0.000162459
-4.95216e-05
7.07137e-05
8.6816e-05
7.66214e-05
2.87836e-05
0.000150168
4.58545e-05
8.44389e-05
0.000116253
-0.000156529
-0.000337046
-0.000639555
-0.000335421
0.000193165
-0.000133353
3.20788e-05
0.000334583
-0.000298393
0.0027567
-0.0038422
0.00528998
-0.00717387
-0.00468101
-0.00602097
0.000408242
0.00337589
0.00438013
-0.0032499
0.000229642
-0.00248923
-0.000169414
-6.74877e-05
-5.55873e-05
-6.7917e-05
-0.000162978
-1.06929e-05
-5.04166e-05
-8.80692e-05
-5.58704e-06
-2.07917e-05
0.000177862
1.41738e-05
-4.00878e-05
-3.72087e-06
5.7544e-06
1.47771e-06
-4.78101e-06
7.89549e-06
-9.74406e-05
-1.51149e-05
-9.69893e-06
-3.40577e-06
-1.86019e-06
0.000365719
2.12163e-06
-0.000569896
0.000554916
-0.000821952
-1.23056e-06
0.000846678
7.01808e-06
-0.00125768
0.00123089
-0.00175589
1.18767e-06
0.00181628
1.6493e-05
-0.00257811
0.00253303
-0.00346517
8.4386e-06
0.00359714
3.55253e-05
-0.00490192
0.00482947
-0.00631195
2.58525e-05
0.00657821
6.44232e-05
-0.00864193
0.00852711
-0.0105785
6.22948e-05
0.0110613
6.04317e-05
-0.0140352
0.0138441
-0.0160678
0.000107959
0.016724
-0.000118131
-0.0206208
0.020329
-0.0126151
-3.43358e-05
0.0125051
-0.000919459
-0.00227018
-0.0016153
-0.00279511
-0.0263054
0.00520948
0.00297207
-0.00196263
-0.00390874
-0.00107013
-0.018532
0.00440011
-0.00876867
-0.0111738
-0.00162894
-0.00330307
-0.00449785
-0.00224631
-0.00121935
0.000561719
-0.000619494
-0.00118375
-0.00108514
-0.000582622
-0.000314202
-0.000160403
-4.88074e-05
8.60172e-05
7.57205e-05
7.92587e-05
9.08578e-05
0.000133969
0.000128682
8.48056e-05
8.55529e-05
6.24445e-05
-5.51862e-05
1.61755e-05
-6.20131e-06
-4.24693e-06
1.47032e-05
-4.80426e-05
-1.67556e-07
2.26085e-08
-2.10173e-08
2.50065e-07
-3.064e-05
-3.62366e-05
-3.62496e-05
-3.06749e-05
3.10864e-05
-2.3241e-05
1.9056e-06
3.70823e-05
-2.87091e-05
-2.85304e-05
1.98329e-06
3.66689e-05
2.36688e-07
5.54077e-07
5.94842e-07
5.18552e-07
-3.06315e-06
-8.5702e-09
-1.98147e-06
-2.27899e-06
1.02715e-06
1.32896e-05
4.37152e-05
-1.70372e-05
-9.6446e-05
-0.000406141
0.000113803
-0.000215962
0.00102314
-0.00142306
0.00950801
-0.0124535
0.0160962
-5.39651e-05
-0.00454271
-0.00094476
0.00127316
9.73963e-05
0.000622646
0.000874925
-0.00206619
-0.00402644
-0.00813592
-0.0192146
-0.0198243
-0.0439392
-0.0169028
-0.0142812
-0.00014502
-0.00544004
0.00540914
-0.0397367
-0.024373
-0.0119671
0.0171897
0.0013811
0.000700852
-0.0174246
0.01834
0.000133731
-0.00229831
-0.0189751
0.0183798
3.68662e-05
-0.00254161
-0.0185397
0.0183209
0.000137172
-0.00405958
-0.0177101
0.0130815
-0.0115301
0.0101993
0.00779218
0.0218208
-0.0102701
-0.00564767
0.0031891
0.0121319
-0.036028
-0.00167961
-0.0208587
0.0209674
0.020439
0.018548
0.0234981
0.0101057
0.00137721
0.00835121
0.0120367
0.0185846
-0.00566615
0.0015688
0.00985518
-0.00548337
0.000127665
0.00558451
-0.00344292
2.67012e-05
0.0032298
-0.00186747
2.8347e-05
0.00178334
-0.000948103
1.99632e-05
0.000917764
-0.000453531
8.4621e-06
0.000430563
-0.000216515
-6.15379e-06
0.000175225
-0.000119337
-3.58604e-05
2.02944e-05
-0.000103876
-6.28104e-05
4.01249e-05
-0.000130478
0.000208016
-0.000321707
1.61611e-05
-0.000231565
0.000171983
1.67849e-06
-7.81953e-05
5.61526e-06
7.8841e-05
-7.75963e-05
1.09231e-06
1.29498e-06
4.98447e-07
7.84844e-07
2.07837e-06
4.77785e-06
1.39704e-05
2.98847e-05
6.2636e-05
-0.000266075
-8.91712e-06
-0.00011106
0.000614566
-0.000624877
9.33956e-05
6.45438e-05
0.000334633
0.000352969
0.00178533
0.00228738
-0.000159635
-0.00133401
0.00184613
0.000222336
-0.00264401
0.00349997
0.000389065
-0.00491766
0.00606351
0.000638926
-0.00853233
0.00957898
0.000991699
-0.0134968
0.000720288
0.00104128
-0.00195715
-0.00196451
-0.00771766
-0.00378911
-0.00200119
-0.00107404
-0.000582741
-0.000317042
-0.000162489
-5.05266e-05
8.45732e-05
7.33348e-05
7.61083e-05
0.000128581
8.11289e-05
-5.09807e-05
-0.000164628
-0.000329123
-0.000610302
-0.00111159
-0.00203268
-0.00380859
-0.00751181
-0.017561
-0.0182934
-0.0311469
-0.0257783
-0.00874166
-0.00867495
0.0155946
0.00160682
-0.00194574
-0.00154956
0.00716993
0.000229275
-0.00587071
-0.00560219
0.0057229
-1.20986e-05
-0.00642147
-0.0061311
0.00505643
1.00384e-05
-0.00797613
-0.00760054
0.00255922
-0.0113826
0.00806782
0.00783727
0.0081813
0.00717228
-0.00964731
0.000748445
0.00338079
-0.0113243
0.0025454
-0.0104563
0.0118978
-0.0253758
-0.000977935
-0.0244331
0.0194022
0.0209702
0.0199641
0.0195715
0.0203015
0.0194799
-0.0264702
-0.00120457
-0.0238667
0.0145162
0.0155886
0.014579
0.0153971
-0.000986887
-0.0254735
-0.0252951
0.0119332
0.020001
0.0187704
0.0175991
0.0219812
0.0220961
0.0170208
0.0047879
0.00978641
0.00418163
-0.00235535
0.00339522
0.000867129
-0.00250227
0.00160477
0.000297726
-0.00168453
0.000958899
0.000187792
-0.00103711
0.000527398
9.90703e-05
-0.000575654
0.000288394
6.76233e-05
-0.000302481
0.00013157
2.5144e-05
-0.000150036
5.36345e-05
5.72964e-06
-7.95295e-05
8.78873e-06
-2.23086e-05
-6.40867e-05
-2.67415e-05
-7.46611e-05
-9.10732e-05
-8.69552e-05
-5.83766e-05
-4.00636e-05
-6.38569e-05
-2.18837e-06
5.01971e-05
-3.58688e-05
4.16745e-06
4.09263e-05
-4.02721e-05
1.8065e-06
4.22103e-05
-4.37439e-05
-1.94408e-06
-3.85171e-06
-8.45408e-05
-6.27148e-07
-0.000169524
4.13089e-07
-0.000237229
2.9822e-06
0.000364444
-0.000367043
1.58266e-07
-0.000542629
2.63373e-05
0.000821244
-0.000736842
4.13585e-05
0.00108829
3.99614e-05
-0.00156693
7.42723e-05
0.00222394
6.27474e-05
-0.00308806
0.000125085
0.00420085
6.9038e-05
-0.00562373
0.000188942
0.0073329
8.60181e-05
-0.00944975
0.00028088
0.0118533
-3.39711e-05
-0.0145048
0.00048959
0.0175502
-6.70324e-05
-0.000660418
-0.0219356
-0.015907
0.000785127
0.0167379
-0.000319916
-0.0145676
-0.0101157
0.000613062
0.0112063
-0.000185196
-0.00897215
-0.00617364
0.000369754
0.00673583
-0.00011759
-0.00511476
-0.00350387
0.000222643
0.00372619
-5.91141e-05
-0.00268129
-0.00184074
0.000125454
0.00189776
-3.14643e-05
-0.00129334
-0.000891926
6.07651e-05
0.000900018
-1.1204e-05
-0.000564712
-0.000398945
2.7531e-05
0.000409922
1.64447e-06
-0.00022292
-0.000161291
2.0319e-05
0.000210002
2.10371e-05
-7.95413e-06
4.00025e-05
-6.27913e-05
-0.000103972
2.03427e-05
-3.63302e-05
1.67528e-05
9.90944e-05
-7.288e-06
2.11663e-06
-7.98585e-05
1.11575e-06
0.000169794
-0.000164207
1.09024e-06
-0.000232646
1.62953e-05
-0.000325102
2.05297e-05
0.000492496
3.30856e-05
7.66601e-06
5.05363e-06
3.87192e-06
0.000247403
3.98579e-06
-9.26959e-07
-3.50849e-05
2.47803e-07
4.02526e-05
6.0918e-07
3.69624e-07
2.70154e-07
-6.17365e-06
-7.24904e-06
-5.37409e-06
-5.0845e-05
-1.12263e-05
-2.01745e-05
-3.17088e-05
-3.10796e-05
-3.51503e-05
0.000471949
0.000390537
-3.01796e-05
8.63749e-05
3.17041e-05
2.7749e-05
0.000161289
3.77085e-05
-0.000295183
0.000394785
5.6542e-05
-0.000635347
0.000890988
0.000116563
4.14583e-06
-6.96799e-05
-8.18331e-05
-0.000125534
-0.000184406
-0.000234785
-0.000192122
-0.000129296
-7.14244e-05
-8.14594e-05
-6.83318e-05
-3.11118e-05
-3.56339e-05
-0.000286493
0.000385821
0.000628364
-0.000892921
0.00139719
-0.00189654
-5.80428e-05
-0.00102983
6.84442e-06
0.000766676
-3.50644e-05
-0.000463061
-6.04771e-06
0.000354235
-4.28597e-05
-1.81214e-05
-0.00036814
-3.975e-05
0.000511744
-0.000591185
1.67685e-06
-0.0014381
-1.7575e-05
0.00202362
-0.00179897
4.06646e-06
-0.00257403
4.28839e-06
0.00356257
-0.00351554
2.24227e-06
-0.00476413
7.95042e-06
0.00634159
-0.00651948
-2.69476e-05
-0.00816408
0.000103236
0.0103908
-0.0131157
3.98333e-05
0.0159467
-0.0190295
-0.000165605
-0.000595569
-9.12031e-05
-1.25862e-05
2.39065e-05
2.62796e-05
1.97326e-05
1.27079e-05
6.90052e-06
2.46953e-06
1.89892e-06
-3.99298e-05
4.73447e-05
-4.62627e-05
-3.95876e-05
3.49103e-07
6.88107e-07
-2.77682e-06
1.95382e-06
3.65523e-05
7.26389e-09
-4.73628e-07
-3.40967e-06
3.43028e-06
-4.12664e-06
-4.932e-05
-1.06014e-05
-2.23866e-05
0.00014247
3.94914e-05
-5.49537e-06
-3.09613e-06
-1.39483e-06
-1.15606e-06
2.88406e-05
2.96043e-05
-1.24628e-06
2.35027e-05
4.06168e-05
-1.04805e-06
-1.64379e-06
-2.47239e-06
-1.64567e-05
-3.91882e-06
-4.31565e-05
0.000181991
4.64965e-06
-0.000284886
-5.77796e-06
0.000414435
-0.000372722
-1.79387e-06
-0.000573248
1.68574e-07
-0.000836712
3.39147e-07
-0.00123203
7.83429e-06
0.00177845
-0.00181661
-4.18501e-06
-0.00246977
6.71066e-05
0.00342799
-0.00467437
9.08736e-05
0.00621442
3.57289e-06
1.1423e-05
1.05078e-05
7.46806e-06
4.15444e-06
3.36681e-06
5.96674e-07
2.00234e-07
-2.21609e-06
-4.53246e-06
-3.03507e-06
-6.17279e-06
-1.75526e-06
-2.13949e-06
1.44245e-06
1.42061e-06
1.72314e-06
3.56171e-06
4.22894e-06
8.22202e-06
9.20779e-06
9.96648e-06
1.8839e-05
2.8778e-05
0.000122995
0.000194199
-0.000660439
0.000127638
-0.00113153
0.00338583
-0.0225311
-0.00628652
0.000249112
-0.002031
0.0109417
-0.0107801
-0.0320815
-0.0127407
4.05388e-05
0.00332932
0.000372668
-0.0259738
-0.0114978
-0.00779875
0.0148404
0.00159174
-0.00168429
-0.00279932
0.00779115
0.000235599
-0.00548151
-0.00672624
0.00670199
6.96827e-06
-0.00600498
-0.00705072
0.00624328
5.69752e-05
-0.00770732
-0.00801118
0.00145861
-0.000431034
7.16134e-05
7.15434e-05
0.0160256
-0.0145299
0.000281711
0.0121849
-0.000331237
0.000166237
-0.0153945
0.000475731
-0.00949656
0.0117673
0.000289034
-0.0138311
-0.0243181
0.0171235
-0.00148372
0.00246542
0.00806445
-0.000265003
0.019802
0.0144154
0.0161658
-0.0185756
0.000805845
-0.0156741
-0.000559772
-0.0173318
0.000953513
-0.0166096
-0.0005666
-0.0166999
0.000984786
-0.0178465
0.0150202
0.0147349
-0.000979512
-0.0309741
-0.0248672
0.0118066
-0.00844016
0.0120427
0.00697349
0.00820319
-0.0103361
0.00283566
0.00220003
-0.0116435
0.00429098
0.0077729
-0.0097698
0.0168089
-0.0089953
0.00146894
-0.00850593
0.00127944
-0.0091415
-0.00714313
0.00118396
-0.000597354
-8.92522e-05
-4.30404e-05
1.55352e-05
3.85579e-05
3.26759e-05
2.21277e-05
1.34605e-05
7.12011e-06
2.49906e-06
1.9629e-06
-2.34241e-05
3.14241e-05
5.65502e-07
6.10303e-06
4.28454e-06
3.58592e-06
-3.58562e-05
-2.58825e-07
4.86595e-05
-3.54544e-05
-1.73671e-05
4.80805e-05
-4.00916e-05
-5.87173e-05
-6.41831e-05
5.35112e-05
5.03923e-05
-2.19017e-06
-3.47454e-06
-1.43637e-05
2.50061e-06
5.25365e-05
-5.72284e-06
-9.31095e-06
-1.14323e-05
4.80206e-05
4.82768e-05
-9.6086e-06
-5.40731e-06
5.56357e-05
-2.11887e-05
-5.30278e-05
-2.14013e-05
5.1673e-05
1.19877e-05
1.11039e-05
8.33864e-07
9.32024e-06
1.72104e-05
9.98564e-05
-7.4019e-06
5.5963e-06
-1.30649e-07
-2.24818e-06
-5.71039e-06
-1.18381e-05
-2.48712e-05
-5.35657e-05
-0.000109918
2.02731e-05
-4.55467e-05
0.000121592
-0.000703118
-0.000172674
0.000881966
-0.00145502
-0.000478145
-0.000505914
-0.0154718
0.0148608
-0.000446812
-0.000338285
0.00102926
-0.000753633
-0.000365441
0.00274428
0.00484453
0.00260821
0.0137364
-0.00623227
0.00179424
0.0111225
0.0122108
-0.0032201
0.00136917
-0.000139709
0.00075055
-0.000180674
4.87686e-05
-0.00116204
-3.76051e-05
5.97588e-05
1.78854e-05
2.00241e-06
-2.01773e-06
5.23052e-06
4.95294e-08
3.77233e-06
2.96231e-06
5.0503e-06
4.16287e-05
9.20613e-05
0.000172609
0.000292701
0.000461151
0.000739902
0.000341071
9.86723e-05
0.000198856
0.000108172
4.40712e-05
1.6868e-05
1.27362e-05
6.18263e-06
1.25921e-05
8.13283e-06
-0.000539359
0.000489034
-0.000727935
0.00107832
-0.0015487
4.48854e-05
-0.00119567
0.00081686
2.63321e-05
7.16981e-06
4.46726e-06
1.04317e-06
0.000360516
3.93911e-06
-9.35925e-07
4.02751e-05
1.11017e-06
3.51543e-06
7.37778e-06
-9.71122e-06
5.56891e-05
4.33692e-05
-1.56679e-05
6.99047e-06
-1.44174e-08
-1.5442e-07
2.42928e-05
-1.17924e-06
-1.39575e-07
1.65983e-05
-5.49956e-05
1.45605e-05
5.25547e-07
6.3207e-06
4.49303e-06
4.90192e-07
-3.44268e-06
2.60192e-06
4.6765e-06
-1.56958e-05
-1.44262e-05
5.59133e-05
-1.76075e-05
-3.52227e-05
-9.90144e-06
4.87604e-05
-2.05661e-07
7.28484e-06
4.28452e-06
2.22748e-06
1.50703e-06
3.84883e-06
4.35098e-06
3.18856e-05
1.43899e-05
2.0411e-05
3.6096e-05
4.12203e-05
8.53568e-06
8.50115e-07
1.39814e-05
5.55735e-07
0.0017385
-0.00245794
0.00220645
-0.00306203
0.00418554
-0.00561272
0.000131047
-0.00467942
0.00342497
7.71052e-05
1.11447e-05
6.76934e-05
7.41505e-05
0.00011361
0.000117491
2.14592e-05
-9.01748e-07
1.69857e-05
1.76262e-05
2.99572e-05
2.65709e-05
3.81304e-05
9.04141e-05
0.000210439
8.12345e-05
0.000732266
0.000111149
3.99816e-05
1.0383e-05
-7.6034e-07
-3.67729e-06
-1.01746e-06
-1.55355e-06
3.54757e-06
1.16918e-06
-5.27588e-08
7.95199e-06
7.99297e-06
5.22569e-06
-8.18494e-06
-7.7044e-06
-1.09257e-06
-1.44195e-06
-1.83623e-06
1.28354e-06
3.05128e-06
6.53394e-06
1.25302e-05
1.6091e-05
2.40654e-05
1.88301e-05
2.73267e-05
5.33801e-05
4.61221e-05
3.3383e-05
8.41357e-05
0.000238225
7.95846e-05
7.70548e-05
0.0033491
-0.000550396
0.000387909
6.55108e-05
0.000224612
0.00704576
-0.000261979
-0.00101845
0.00591177
0.00211031
-0.0258776
-0.00955561
-0.0155401
0.0158486
-0.0114076
-0.0122486
0.0143555
-0.0166309
-0.000896583
-0.00124709
-0.0164
0.0147473
-9.83769e-05
-0.000699639
-1.51846e-05
0.000283449
0.00038079
0.00624707
0.00224164
-0.0113215
-0.0106437
0.0173759
0.00153571
-0.00409017
-0.00126016
0.00670734
0.000163255
-0.0078565
-0.00510461
0.00511729
-1.7141e-05
-0.00815976
-0.00560159
0.00449753
-3.52543e-05
0.00716423
0.00696595
0.00039709
0.0100377
-0.00983882
8.80635e-05
-0.00758316
-6.26578e-05
-0.00012604
-1.83558e-05
7.2914e-06
1.31512e-05
9.55797e-06
5.42653e-06
2.70593e-06
1.16477e-06
-1.11066e-06
-3.84734e-06
5.94682e-05
-0.000623346
0.000891468
0.000119831
-0.00131701
0.00185858
0.00286532
-0.00376174
0.0054294
-0.00696219
-0.000142455
-0.00411174
8.85471e-05
0.00317497
-9.69621e-05
-0.00213098
3.11461e-05
0.00161417
-0.000255343
-0.000179315
-0.00169907
-0.000125056
0.00216128
-0.00248555
2.37844e-05
-0.0055251
-2.32927e-05
0.00731523
-0.00640501
2.3371e-05
-0.00843304
2.35381e-05
-0.010671
-1.97257e-05
-0.0132756
-4.21442e-05
0.0161384
-0.0167671
-1.77632e-05
0.0194644
-4.30824e-05
-0.0191427
0.0190703
-5.90483e-05
-0.0163298
0.0165158
-0.0193171
-1.0869e-05
2.05596e-05
0.000109218
7.23978e-05
2.8026e-05
6.5189e-06
-1.14906e-06
-2.96296e-06
-3.48693e-05
-5.90023e-05
-0.000122965
-0.000154231
-0.000184273
-0.000231776
-0.00261045
0.00353268
0.000393359
-0.00483584
0.00614452
0.0095111
-0.0120511
0.015363
-0.0191972
0.000264002
-0.0136257
0.00134235
0.00980988
-0.000139233
-0.00756174
0.000314032
0.00581571
-0.000715209
-0.00040182
-0.00554779
-0.000154092
0.00705141
-0.00777383
0.000117272
-0.0154318
5.74286e-05
0.0190685
-0.016312
-3.88236e-05
0.0193157
0.000125031
-0.0220392
0.0129534
1.53316e-05
-0.0124156
0.0106954
-0.0148351
0.000327936
-0.00293039
-0.00144506
-0.00239084
-0.00393708
0.0145426
-0.024037
0.00509309
-0.00616325
-0.00287751
-0.00152055
-0.000854106
-0.000475955
-0.000251007
-0.000113408
-5.87549e-06
0.000259993
0.000109641
-5.62163e-05
3.86354e-05
1.1277e-05
0.000156406
-0.000141859
0.000121021
-7.96515e-06
-8.23511e-05
2.15918e-06
0.000179197
-0.000176489
-2.16567e-06
-0.000246873
-1.68706e-07
-0.000365133
-1.04151e-08
-0.000556952
5.2996e-06
0.000833808
-0.000848698
-1.33059e-06
-0.00120354
4.23023e-05
0.00174576
1.04742e-05
4.28239e-06
0.00127512
4.28459e-06
0.000578825
-7.06055e-07
-1.40153e-06
-3.21805e-06
-9.03094e-06
-6.28988e-07
8.15763e-05
3.94844e-06
1.73737e-06
2.95855e-05
5.26227e-05
-0.000131811
-1.93453e-05
-0.000261868
1.02203e-06
-0.000656292
-1.12372e-05
0.000946413
-0.000845902
1.32008e-07
-0.00126139
1.14696e-06
-0.00178581
1.48472e-06
-0.00252178
9.83194e-06
0.00349837
-0.00358363
-1.13314e-05
0.00490248
-3.12628e-06
3.10636e-06
0.00260202
-2.54026e-07
9.64846e-06
2.71487e-06
-2.56768e-06
0.000561308
-5.06169e-06
0.000241417
1.43785e-05
-2.26823e-05
0.000240415
-1.55071e-05
2.19681e-05
-6.66034e-05
0.000397084
-4.93389e-05
-8.88629e-05
-0.000832371
-7.51372e-05
-0.00126076
7.74794e-06
-0.00293028
-2.38256e-05
0.00400143
-0.00353444
1.21337e-05
-0.00485221
1.15711e-05
-0.00637994
-1.73023e-06
-0.00829716
-6.14575e-06
0.0105854
-0.0109341
-4.89706e-05
0.013581
-2.63407e-05
-9.06511e-07
1.18642e-05
1.5313e-05
2.83639e-05
2.0704e-05
1.3098e-05
6.75865e-06
5.745e-06
5.69883e-06
1.02263e-05
9.45024e-06
7.27774e-05
0.000138421
0.000233641
9.22696e-06
2.6741e-05
1.75323e-05
1.55556e-05
9.80978e-06
3.3165e-06
4.23052e-06
-5.29087e-05
-0.000431976
3.36018e-05
-0.000422034
0.000702804
7.95124e-05
-0.000964336
-0.0009885
0.000715807
0.00066849
7.786e-05
-0.000921765
-0.0010541
0.000758197
-0.000456387
3.26274e-05
-0.000408401
0.000310036
0.000326828
0.000322358
0.000313313
3.33985e-05
-0.000447512
-0.000417773
-5.2971e-05
0.000679066
7.89828e-05
-0.00103316
-0.000944968
-0.000108769
0.00141625
0.000165135
-0.00216249
-0.00196432
-0.00201412
-0.00206489
0.000168039
0.00146716
0.00149715
-0.000108224
0.00139126
0.00016424
-0.00191516
-0.0022061
0.00159192
-0.00011221
-0.000871279
-0.00130231
5.83897e-05
0.000608299
-5.54233e-05
-0.000390369
-0.00057
2.57648e-05
0.000288038
0.000345812
-0.000171911
1.96961e-05
-0.000167267
-3.62958e-05
-0.000170224
1.966e-05
-0.000166991
-3.62795e-05
-0.000170277
2.00938e-05
-0.000168972
0.000341142
0.000290209
-3.7886e-05
-2.9889e-05
5.14815e-05
-8.47868e-05
-7.66364e-05
-7.72703e-05
-8.66884e-05
-8.23862e-05
-8.3139e-05
-7.98517e-05
-8.67003e-05
-0.000128869
-8.59564e-05
-7.78104e-05
-7.66133e-05
-5.11528e-05
-1.80563e-05
-2.39394e-05
5.55908e-05
-6.16555e-05
0.000170888
0.000173389
0.000172238
0.000171593
0.000178583
0.000161599
-5.85382e-05
4.82198e-05
-1.78343e-05
-5.10667e-05
-2.40928e-05
5.24616e-05
1.11745e-05
3.19369e-05
3.2544e-05
7.4403e-05
0.000141236
-1.64404e-06
-0.00020446
0.00291322
0.000303174
-0.00385337
-0.00395162
-0.00365367
-0.00422573
0.000294394
0.00270789
0.00310696
-0.000209993
-0.00179734
-0.00270605
0.000122852
0.00127096
0.00191022
-2.63224e-05
0.000146961
-0.000309845
6.35213e-05
0.000304804
-0.000598897
0.000111449
0.000591722
-0.00105498
0.000215719
0.00118215
-0.00159917
0.00064376
0.00285682
0.000226535
0.00189597
-0.00060755
0.000984694
-0.000493778
0.000591785
-0.000307264
0.000345674
-0.000172415
0.000182787
3.01819e-05
-0.0001512
0.00090466
-1.00188e-05
6.05869e-05
-7.95007e-05
7.22212e-06
6.42889e-05
-9.69916e-05
-7.377e-05
1.21951e-05
2.22314e-06
-0.000225176
1.95246e-05
-0.000158495
-3.79489e-05
-2.95826e-05
5.5324e-05
-6.63519e-05
-8.71886e-05
-9.06571e-05
-7.50335e-05
-2.63848e-05
-6.46375e-05
-2.18592e-05
-3.56197e-05
-0.000148603
2.13609e-05
0.000210884
0.000161359
0.000179912
-5.85384e-05
-0.000133771
-8.45931e-05
5.21937e-05
0.000170016
0.000175069
0.000350593
0.00062919
0.00105307
0.00021954
-0.00341595
-0.00518126
0.00375232
0.00249051
-0.000329427
-0.000174657
-8.00959e-05
-7.09406e-05
0.000324585
0.000564261
0.000919962
-0.000555051
-0.000358448
0.00559752
0.000471742
-0.00641456
-0.00746445
-0.00596271
-0.00922253
0.000346942
0.00454248
0.00683055
-6.76757e-05
0.000105476
4.42057e-05
2.76083e-05
5.54524e-05
0.000101623
-0.00826377
0.00738486
-0.0095055
0.000116554
0.000276141
0.000177441
0.000152374
2.93422e-05
-4.87253e-06
0.00623823
3.33405e-05
-2.8532e-06
0.0104817
0.000212873
-6.14742e-06
0.000354272
0.000480946
-7.67949e-05
1.06044e-05
3.08406e-05
1.42783e-05
2.06232e-05
-1.65083e-05
2.71404e-05
1.96103e-05
2.83363e-05
-9.55443e-07
1.87764e-05
1.63473e-05
3.19683e-06
-8.67207e-07
3.01463e-08
-2.14509e-06
5.09551e-06
0.000225681
0.000393013
0.000212155
0.000168069
0.000169271
0.00018767
7.67508e-05
7.67803e-05
2.76201e-05
4.37213e-05
0.00014648
0.000102273
0.00032009
0.000316651
0.000519003
0.000525066
0.000593778
0.000713159
0.000711972
0.00092926
0.000649551
-0.00831459
0.0097649
0.00104152
-0.0128409
0.00102262
0.000775289
-0.0019119
-0.00270186
-0.0211049
-0.0226601
-0.0381099
0.00967451
0.00308281
0.0174911
-0.00638745
0.0104203
-0.00114076
-0.0116738
0.010621
-0.000235285
0.00707097
-0.000260346
0.00998033
-0.0109546
-0.000881157
-0.000271548
-0.000320208
0.000137447
-0.00111982
0.00732863
-0.000301677
0.000452946
0.00022143
0.000103261
0.00013153
5.38206e-05
4.84127e-05
-0.000200401
-0.000199329
-0.000192111
-2.60386e-05
0.000386517
3.21163e-05
-7.81151e-05
-8.314e-05
0.00336195
-0.00454484
6.06111e-05
-0.00962925
-2.77015e-08
0.0123656
-0.0106919
2.44818e-05
-0.0134582
2.72323e-05
0.01332
-2.06949e-06
7.71504e-06
1.22141e-05
2.64884e-05
7.82834e-05
0.000651693
0.000121443
3.66349e-05
1.37954e-05
3.07476e-06
3.59647e-06
4.22437e-06
2.21807e-06
1.00124e-06
0.000564006
1.00746e-06
0.000844305
1.19239e-07
0.000366063
0.000240532
2.56574e-07
0.000167995
8.20562e-05
2.12625e-06
9.40778e-08
-2.87777e-07
2.98057e-06
7.25223e-07
0.00124139
3.86133e-05
-0.000129842
0.00108328
-9.60037e-05
7.15669e-05
-0.000227289
0.00177529
-0.000154635
-0.000294824
-0.00319428
-0.000169344
0.00404314
-0.000366662
-0.000228054
0.000221077
0.000129744
8.95725e-06
0.00254515
7.3466e-06
0.00254779
2.15393e-05
3.22239e-05
0.00481929
1.66615e-05
0.00647444
3.69329e-05
9.37519e-05
0.00841818
-0.000603601
0.0058782
-0.000431214
-0.000598569
-0.00918482
2.05786e-05
0.00939005
-0.00118326
0.000295016
-0.000121186
-0.00196626
-0.0053708
-0.000113977
-0.000846472
-0.000351666
0.000214891
0.000213852
0.0134976
4.16284e-05
-2.35382e-07
-4.71561e-05
-7.77077e-05
-0.000319156
-1.06697e-05
4.44486e-05
3.27411e-05
0.0108314
0.00835728
-8.09818e-06
-1.1546e-06
-3.22438e-05
-8.9116e-05
-0.000126218
-0.000563917
-0.000186714
-0.000165835
-7.28989e-05
-2.30035e-05
0.00851434
-1.91595e-05
6.75076e-06
1.08336e-05
0.000172943
9.16335e-05
4.14697e-05
-6.35491e-06
1.55078e-06
0.000293911
0.000460122
0.000705887
-4.88351e-05
0.000302468
0.000232672
-0.000459066
0.00225934
0.00523387
-0.00352055
0.0225964
0.00244117
0.00164887
0.000840627
0.00134979
0.00126915
0.00090166
0.000559384
0.000321991
0.000168365
0.000170343
5.27413e-05
-2.58799e-05
-2.60158e-05
-0.000128771
-6.16585e-05
-0.000133519
-6.64992e-05
5.43694e-05
0.000172972
-8.07056e-05
-5.56305e-05
0.000616307
0.000745696
7.25442e-05
4.01153e-06
5.44456e-06
3.75629e-06
5.2099e-06
6.84337e-06
1.44487e-05
8.98222e-07
5.32064e-05
0.000208708
2.25559e-05
3.59535e-05
7.78661e-06
2.69156e-06
8.91347e-06
8.27424e-06
1.17461e-05
1.32571e-05
-3.3547e-06
0.00013722
0.000230357
0.00023789
0.000359937
-5.95009e-05
-0.000564972
-0.00697469
0.000495314
-0.0067855
0.00834832
0.000780254
-0.0110249
-0.0114039
0.00858673
0.00803826
0.000710509
-0.0103896
-0.0122194
0.00921168
-0.00057249
0.00768308
0.0114653
-3.31842e-05
9.67164e-05
-0.000864263
0.00163719
0.00233242
0.00296125
0.00506019
0.00538509
0.0125585
0.0293783
0.00409848
0.0154301
0.0228837
-0.00220126
-0.00130055
0.00160436
0.00134762
-0.000781366
-0.000503422
0.00487774
0.00523149
0.00511183
0.00495637
0.000486456
-0.00728787
-0.00662524
-0.000572006
0.00816936
0.000777756
-0.011845
-0.0108685
-0.000869808
0.0121747
0.0129828
0.0115199
-0.00085194
-0.000139499
-0.000206993
-1.19528e-05
1.91745e-05
8.50327e-05
1.87636e-05
1.90935e-05
-2.69966e-05
-1.06748e-05
-0.000207494
0.00210669
-0.000239526
-0.000143452
-0.000317624
-0.000297057
-0.000186379
-0.000314307
-0.000143078
0.00554019
-0.000178279
9.39848e-05
2.4651e-05
1.01809e-05
0.00020163
0.000175793
-0.00260323
0.0127717
-0.00690705
-0.0238744
-0.0273789
0.00245354
-0.0131681
0.00563315
0.00184101
-0.00817356
-0.00916454
-0.000878745
-0.00128759
0.00843399
0.00783849
-0.000801466
-0.00770861
-0.000172259
0.00762463
-1.92481e-05
7.41662e-05
-2.38964e-06
7.09266e-05
0.000275029
0.000285309
0.000181353
4.26115e-05
2.80311e-05
-4.76917e-05
-4.61929e-05
3.85635e-06
-6.89535e-05
-2.08723e-05
-4.58146e-06
0.000349377
0.000484736
0.00048835
-0.000191269
0.000618287
0.000514607
-0.00017405
0.0182689
-0.00101404
0.00127314
-0.0202568
0.000538043
0.000261388
0.00302244
0.000361638