/*--------------------------------*- C++ -*----------------------------------*\
| =========                 |                                                 |
| \\      /  F ield         | OpenFOAM: The Open Source CFD Toolbox           |
|  \\    /   O peration     | Version:  2306                                  |
|   \\  /    A nd           | Website:  www.openfoam.com                      |
|    \\/     M anipulation  |                                                 |
\*---------------------------------------------------------------------------*/
FoamFile
{
    version     2.0;
    format      ascii;
    arch        "LSB;label=32;scalar=64";
    class       volScalarField;
    location    "1.1";
    object      gradTz;
}
// * * * * * * * * * * * * * * * * * * * * * * * * * * * * * * * * * * * * * //

dimensions      [0 -1 0 1 0 0 0];

internalField   nonuniform List<scalar> 
5322
(
-0.870506
-0.887473
-0.9142
-0.990998
-0.980888
-0.975863
-0.97306
-0.972182
-0.973645
-0.980636
-0.968888
-0.971437
-0.731024
-1.00787
-1.1021
-0.879836
-1.04002
-0.778677
-1.09647
-1.10677
-1.11424
-1.10973
-1.11099
-1.11755
-1.11841
-1.11311
-1.11462
-1.12084
-1.12253
-1.11812
-1.11932
-1.12268
-1.11646
-1.09986
-1.04703
-0.860361
-0.979098
-0.997431
-1.02956
-0.725441
-0.957401
-0.988054
-0.712419
-0.989502
-0.979826
-0.724264
-1.00322
-0.946998
-0.714647
-0.980952
-1.09893
-0.78798
-1.07273
-1.00706
-0.943639
-0.957399
-1.13633
-0.942519
-0.953412
-0.95837
-1.15016
-0.955218
-0.953795
-0.934739
-1.14937
-0.987352
-0.949262
-0.88778
-1.12214
-1.04827
-0.786323
-1.22461
-1.1663
-1.14971
-1.1619
-1.15625
-1.15565
-1.15159
-1.16665
-1.10473
-1.05117
-0.808511
-0.83806
-1.13214
-0.771622
-1.02626
-1.38631
-0.847495
-0.86858
-0.780197
-0.986333
-0.879804
-0.928262
-0.920979
-1.11879
-0.969965
-0.966043
-0.983874
-1.41087
-0.824796
-0.831754
-0.792921
-0.99133
-1.10564
-1.2028
-0.937549
-0.994538
-0.995576
-0.989923
-0.98905
-0.987409
-0.985375
-0.982902
-0.985308
-1.13382
-1.12261
-0.785635
-0.851316
-1.13404
-0.938253
-0.831632
-1.01147
-0.997296
-1.40501
-1.04662
-1.37577
-0.987813
-1.03147
-1.35215
-0.983638
-1.00951
-1.36435
-0.998875
-0.990713
-1.37059
-1.013
-0.996859
-1.40724
-1.0474
-1.37588
-0.990276
-0.834468
-0.938349
-0.839402
-0.787095
-1.13417
-0.851355
-0.845374
-0.776647
-0.781765
-1.13194
-0.846528
-0.843257
-0.777089
-0.783639
-1.13164
-0.848226
-0.839003
-0.834175
-1.10193
-0.878544
-1.04138
-1.21123
-1.18421
-0.75115
-1.09668
-0.77875
-1.05475
-0.722118
-0.976562
-1.00909
-0.937356
-0.970752
-1.12664
-0.926797
-1.14164
-1.13365
-1.09517
-0.91514
-1.09327
-1.11948
-1.12179
-1.11212
-0.930215
-1.1134
-1.11756
-1.11898
-1.116
-0.93469
-1.11703
-1.11925
-1.12022
-1.1179
-0.937554
-1.11933
-1.12189
-1.12338
-1.11882
-0.940429
-1.1211
-1.12541
-1.12795
-1.11905
-0.943156
-1.1223
-1.12767
-1.13151
-1.12016
-0.942419
-1.12479
-1.1106
-1.11426
-0.981668
-1.41165
-0.825106
-0.822188
-0.795654
-1.12031
-1.11724
-0.928337
-0.921234
-1.11536
-0.97767
-0.954236
-0.990158
-1.40669
-0.82952
-0.822025
-0.797122
-0.978092
-1.11194
-0.965675
-0.976867
-0.993852
-0.989751
-0.989483
-0.987805
-0.985617
-0.983001
-0.985274
-1.13377
-1.12289
-0.782176
-0.779754
-0.779149
-0.782126
-1.1315
-0.843194
-0.847932
-0.853082
-1.00926
-1.41787
-0.84343
-1.13155
-0.847672
-1.40992
-1.02839
-1.34761
-0.982942
-0.853288
-1.00917
-1.34791
-0.719643
-0.966824
-0.927367
-0.926293
-0.971049
-1.13282
-1.09536
-1.12111
-1.11215
-1.11866
-1.11589
-1.12014
-1.11782
-1.12353
-1.11874
-1.12851
-1.1187
-1.13278
-1.119
-1.12125
-0.969082
-1.41105
-0.987655
-0.96569
-1.10801
-1.12749
-0.942906
-1.1273
-1.12368
-0.94359
-1.12589
-1.12165
-0.940737
-1.12257
-1.11943
-0.937728
-1.11995
-1.11682
-0.934758
-1.11852
-1.11276
-0.930198
-1.12103
-1.0921
-0.914887
-1.14319
-0.93763
-1.14191
-1.09333
-0.914895
-1.13397
-0.970811
-1.12639
-0.935321
-0.728415
-1.01126
-0.880018
-1.14683
-1.09758
-1.11898
-1.11863
-1.11801
-1.12003
-1.12096
-1.1209
-1.125
-1.12124
-1.13184
-1.11742
-1.14017
-1.10847
-1.12411
-0.97438
-1.39053
-1.02872
-0.93052
-1.19322
-1.21058
-0.91244
-1.21148
-1.20517
-0.91362
-1.20778
-1.20101
-0.909868
-1.20199
-1.198
-0.906678
-1.19905
-1.19676
-0.904388
-1.19782
-1.19502
-0.901389
-1.20129
-1.18462
-0.888098
-1.21105
-1.04118
-1.10156
-0.976216
-1.03133
-0.899826
-1.05818
-0.720071
-0.821842
-0.934898
-0.858241
-1.17358
-1.14324
-1.10139
-1.09396
-0.912636
-1.13424
-1.15072
-0.893282
-1.13119
-0.993643
-0.94511
-0.928996
-1.36903
-1.10462
-1.04727
-1.40561
-1.0078
-0.939539
-0.959445
-0.932454
-1.14312
-1.09208
-0.924987
-1.12183
-1.11275
-1.11911
-1.11686
-0.921832
-1.12086
-1.11884
-1.12427
-1.11968
-0.922923
-1.12893
-1.11941
-1.13191
-1.1209
-0.922224
-0.929327
-0.928385
-0.928481
-0.928063
-0.924633
-1.13257
-1.11951
-0.941784
-1.12917
-1.11933
-1.13798
-1.11499
-0.939262
-1.1362
-1.09239
-1.21643
-0.935013
-1.3794
-0.83875
-0.802458
-0.81548
-1.07866
-0.873528
-0.777745
-1.13592
-0.760282
-1.0924
-1.1313
-0.757406
-1.11293
-1.12233
-0.753981
-1.11931
-1.12051
-0.752149
-1.11395
-1.11166
-0.751465
-1.11661
-1.1101
-0.751888
-1.11298
-1.10091
-0.75069
-1.10229
-0.8446
-0.814313
-1.01459
-0.885929
-0.987481
-1.02447
-1.1423
-1.15476
-1.14505
-1.15254
-1.11767
-1.11995
-0.932799
-1.12101
-1.12034
-1.11708
-0.928939
-1.11374
-0.923915
-0.874178
-0.876323
-0.779079
-0.90843
-0.881767
-0.845887
-0.986143
-0.97901
-0.968342
-0.977116
-0.758723
-1.23636
-0.684771
-0.919312
-0.97616
-0.954224
-0.958945
-0.98715
-0.972301
-0.970649
-0.989954
-0.960012
-1.02469
-0.901041
-1.01463
-1.01888
-1.15136
-1.1511
-1.15648
-1.15007
-1.12391
-1.12182
-0.938812
-1.12355
-1.12646
-1.12131
-0.935627
-1.12074
-0.924473
-0.876793
-0.875091
-0.777372
-0.907556
-0.897626
-0.85935
-0.906191
-0.876309
-0.841375
-1.0106
-0.899037
-0.777158
-0.979968
-0.984013
-0.972479
-0.972075
-0.917262
-0.890379
-0.884268
-0.77678
-0.968398
-0.955787
-1.09475
-0.923586
-1.12199
-1.12002
-1.11367
-0.930357
-1.11183
-0.920164
-1.11917
-1.11803
-1.11715
-0.935007
-1.11615
-0.919906
-1.12022
-1.12029
-1.1189
-0.938098
-1.1188
-0.920463
-1.12301
-1.12407
-1.11962
-0.941242
-1.12087
-0.920849
-1.12625
-1.12951
-1.11865
-0.944077
-1.12302
-0.920635
-1.12631
-1.13403
-1.11839
-0.942591
-1.1264
-0.917775
-1.10768
-1.11832
-0.98008
-0.963959
-0.980242
-0.800578
-0.825223
-0.793057
-0.750959
-1.07547
-0.765518
-1.03284
-0.848589
-0.81311
-1.06172
-1.08835
-0.915554
-0.965726
-0.96577
-0.972138
-0.990711
-0.97153
-0.971404
-0.994749
-0.966121
-0.992414
-0.970914
-0.963933
-0.964798
-0.967394
-0.974729
-0.962428
-0.963059
-0.732707
-1.00078
-0.885792
-0.921312
-0.925623
-0.943351
-0.974756
-1.12926
-0.851315
-1.04895
-1.03572
-1.04688
-1.06237
-0.83229
-1.04558
-1.04929
-1.04431
-1.13033
-0.763861
-0.768887
-0.767529
-0.766306
-0.763844
-0.761138
-1.1322
-0.7663
-0.765492
-0.76576
-1.13226
-0.767579
-1.13685
-1.13839
-1.13602
-1.00784
-1.00603
-0.934643
-0.92231
-0.9208
-0.922457
-0.924226
-0.925765
-0.878056
-0.780443
-0.907971
-0.897936
-0.858663
-1.02397
-1.01984
-1.16921
-1.13448
-1.19643
-0.918223
-0.988984
-0.843022
-1.03576
-0.914069
-0.970405
-0.990434
-0.963358
-0.962986
-0.966535
-1.00465
-0.991577
-0.976759
-0.926396
-0.887064
-0.895777
-0.932208
-0.736188
-0.806614
-1.09216
-0.989072
-1.03497
-1.06117
-0.702504
-0.877115
-0.925055
-1.09333
-0.727997
-0.913658
-0.930156
-1.0986
-0.73093
-0.902178
-0.941095
-1.09454
-0.74476
-0.891391
-0.996312
-1.36131
-1.01692
-0.992327
-1.24779
-1.20971
-0.984877
-0.744924
-1.07278
-1.00783
-0.943167
-0.955407
-0.94889
-0.714971
-0.979224
-1.09943
-0.787753
-1.05187
-0.808967
-0.838804
-1.13253
-1.07329
-0.868262
-1.1371
-1.10277
-0.889423
-1.12746
-1.11398
-0.889948
-1.12146
-1.11548
-0.889771
-1.11719
-1.11474
-0.88769
-1.11504
-1.11324
-0.88822
-1.11175
-1.11269
-0.872553
-1.10721
-1.09598
-0.850194
-1.05519
-0.895227
-1.03004
-0.975056
-1.04083
-1.21143
-1.18392
-0.888098
-1.14899
-0.878198
-1.10204
-1.01085
-0.728559
-0.934133
-0.967478
-1.12665
-0.922732
-0.969235
-0.970686
-0.981348
-0.973544
-0.976046
-0.973988
-0.973475
-0.908649
-0.881866
-0.846375
-1.02543
-1.02714
-0.90696
-0.902903
-0.962531
-0.978801
-1.12124
-1.12254
-0.923607
-1.11654
-1.11959
-0.938293
-1.11903
-1.12233
-0.941323
-1.12086
-1.12574
-0.943878
-1.12193
-1.12717
-0.942325
-1.12261
-0.987897
-0.996944
-0.979008
-0.984681
-0.971892
-0.964816
-0.964384
-0.964804
-0.965821
-0.968469
-0.975908
-0.965465
-0.96619
-0.728296
-0.96748
-0.92229
-0.970341
-0.969533
-0.980987
-0.97336
-0.971097
-0.970399
-0.970109
-0.97044
-0.975404
-1.02117
-1.01537
-0.742343
-1.32591
-0.999328
-0.959156
-0.931389
-1.09858
-0.73218
-0.733965
-0.803325
-1.14527
-0.765924
-0.777474
-0.792523
-1.1518
-0.769421
-0.780955
-0.785686
-1.14701
-0.785808
-0.799295
-0.868047
-1.4472
-1.03058
-1.00617
-1.01096
-1.00187
-0.848457
-0.817305
-0.871237
-1.44186
-0.861965
-0.863994
-1.14941
-0.956799
-0.953268
-0.933851
-0.994139
-0.711929
-0.984143
-0.984889
-0.725776
-0.999378
-0.945038
-0.952831
-0.955023
-1.15732
-1.15345
-1.16372
-1.14792
-0.953802
-0.90029
-0.979999
-1.15119
-0.964879
-0.732579
-1.02464
-0.899091
-0.731348
-1.22456
-0.675625
-0.932713
-0.817087
-1.00327
-1.00839
-0.841861
-1.03073
-1.01995
-0.863796
-1.02209
-1.02749
-0.844638
-1.02679
-1.01791
-0.863531
-1.01637
-1.02493
-0.839726
-1.02302
-1.01577
-0.859129
-1.0102
-1.02456
-0.835491
-0.997671
-1.00435
-0.816262
-0.935447
-0.682267
-1.23215
-0.886585
-0.759549
-1.40679
-0.997626
-1.04682
-1.37425
-0.989273
-1.02961
-1.35059
-0.98231
-1.01091
-1.36419
-1.00139
-0.988026
-1.36976
-0.734852
-0.94229
-1.12981
-0.929559
-0.938124
-1.1406
-0.914938
-1.09324
-1.09378
-0.923559
-1.11938
-0.901315
-1.11722
-1.19465
-0.777408
-1.19793
-0.750546
-1.19574
-0.777293
-1.19735
-0.751132
-1.1983
-0.778436
-1.19949
-0.752523
-1.20061
-0.780185
-1.20141
-0.754584
-1.2053
-0.782923
-1.20434
-0.757321
-1.21205
-0.786554
-1.19649
-0.757495
-0.892485
-1.14276
-1.11608
-0.938325
-1.15977
-0.904639
-1.1582
-1.12416
-0.931377
-1.15689
-0.903564
-1.15411
-1.12323
-0.927974
-1.15303
-0.901537
-1.15256
-1.12145
-0.925526
-1.15206
-0.899937
-1.14919
-1.1203
-0.924487
-1.14952
-0.898882
-1.14852
-1.12041
-0.924596
-1.15111
-0.897545
-1.14678
-1.12419
-0.929243
-1.1361
-0.885531
-1.17948
-1.13387
-0.945205
-0.854556
-0.82107
-0.720961
-0.976536
-1.03139
-0.89539
-1.05554
-0.847877
-0.881507
-0.892941
-0.919364
-0.923373
-0.964823
-1.12709
-0.927129
-0.968714
-0.934679
-1.14695
-0.888535
-1.18371
-0.779234
-1.20101
-0.751153
-0.980743
-0.970035
-0.957803
-1.13475
-1.00615
-1.40887
-0.847913
-1.13156
-0.843676
-0.852002
-1.04775
-1.04298
-1.03487
-1.04367
-1.05008
-1.41742
-1.0072
-0.937948
-0.923437
-0.924723
-0.927419
-1.12327
-1.12479
-0.92889
-0.973112
-0.964707
-0.958654
-1.13341
-0.915366
-1.09507
-1.12006
-0.93053
-1.11265
-1.11818
-0.935215
-1.01283
-0.923097
-0.924037
-0.924742
-0.926489
-0.924082
-0.926327
-0.924585
-0.922619
-0.922098
-0.920904
-0.922486
-0.923673
-1.09558
-1.12019
-1.20059
-1.19459
-1.19724
-1.19554
-0.750836
-1.11435
-0.776881
-1.11199
-0.75138
-1.1141
-0.779017
-1.10747
-0.871398
-0.837084
-1.02167
-0.897642
-1.01286
-1.14974
-0.924521
-1.1198
-0.931555
-1.11743
-1.11881
-0.924006
-1.11828
-0.936493
-1.11876
-1.11924
-0.923524
-1.1199
-0.937947
-1.12189
-1.12195
-0.924132
-1.12374
-0.908845
-1.12597
-1.1257
-0.909631
-1.13231
-1.10748
-0.900025
-0.99847
-0.997631
-0.990651
-0.989232
-0.987486
-0.985461
-0.982982
-0.985412
-1.13383
-1.12234
-0.782766
-0.776404
-0.780733
-0.846193
-1.41649
-1.0074
-1.00807
-1.40421
-0.845712
-0.850673
-1.04975
-1.04705
-1.10514
-1.04632
-1.40966
-1.00591
-0.934578
-1.1481
-0.888887
-0.984081
-0.965272
-1.13618
-1.13006
-0.765566
-0.763043
-1.13226
-0.760508
-0.775954
-1.13181
-0.96577
-0.92467
-0.876457
-0.928852
-1.36731
-1.1815
-0.945583
-1.1322
-0.912441
-1.10263
-1.09163
-0.927295
-1.11953
-0.930014
-1.11156
-0.922227
-1.11707
-0.933956
-1.11674
-1.11581
-0.920638
-1.11935
-0.905348
-1.12072
-1.12145
-0.90701
-1.1229
-0.926105
-0.924241
-0.922573
-0.920996
-0.922525
-0.965198
-1.13613
-1.12986
-0.94402
-0.988317
-0.965856
-0.983991
-0.964952
-0.943967
-0.988091
-0.923016
-0.924831
-0.92218
-0.921705
-0.924153
-0.921468
-0.971097
-0.970333
-0.970131
-0.972967
-0.972616
-0.901626
-0.882873
-0.888609
-0.897801
-0.732702
-1.01766
-0.749732
-1.35908
-0.980762
-0.958008
-0.958992
-1.11228
-0.985933
-1.03255
-0.980998
-1.34943
-0.966513
-0.95754
-0.929866
-1.09392
-0.730476
-0.743853
-0.81089
-1.13893
-0.762674
-0.789278
-0.802878
-1.14524
-0.766112
-0.790463
-0.798404
-1.14048
-0.784078
-0.804048
-1.15982
-0.994672
-0.928383
-0.921253
-1.12682
-1.20152
-0.912493
-1.21287
-0.758858
-0.909275
-1.17425
-0.928139
-1.11496
-1.14161
-0.931494
-1.09536
-1.18104
-1.12707
-1.04529
-0.832981
-0.954069
-0.88673
-1.10448
-1.1677
-1.14965
-1.11314
-0.935299
-1.10347
-0.928145
-1.10914
-0.935065
-1.10366
-0.928885
-1.11015
-0.93765
-1.10407
-1.17043
-1.14384
-0.953726
-0.846285
-1.0071
-1.15229
-0.844278
-1.01245
-1.03002
-0.990534
-0.863224
-0.861771
-0.867032
-1.43318
-0.86817
-0.956743
-1.37434
-1.03383
-0.993833
-0.843728
-0.856915
-1.15709
-0.795676
-0.795137
-1.15368
-0.98055
-1.00017
-0.995716
-0.990085
-0.989212
-0.987535
-0.985471
-0.982958
-0.985345
-1.13383
-1.12263
-0.760488
-0.763615
-1.03894
-1.03484
-1.04648
-1.34733
-1.02876
-0.834034
-0.83921
-0.938012
-0.851413
-0.831984
-0.997386
-1.40725
-1.04689
-1.36715
-0.988823
-1.37351
-1.1052
-1.06331
-1.04731
-1.40463
-0.845811
-0.846356
-1.13193
-0.778846
-0.77835
-0.846526
-0.845711
-0.850067
-1.00278
-1.38214
-1.00334
-1.4159
-1.00679
-1.0078
-0.928925
-0.779208
-0.88326
-0.88992
-0.919725
-0.972028
-0.971873
-0.983898
-0.976365
-0.974252
-0.973709
-0.973578
-0.974001
-0.970839
-0.977791
-0.97669
-1.0117
-0.746921
-0.818425
-0.823059
-1.41167
-0.956968
-0.968309
-0.998538
-1.32231
-0.739775
-0.821376
-0.823861
-0.752206
-0.83172
-0.846903
-1.38647
-0.993953
-1.02624
-0.780627
-0.868661
-0.94812
-0.890789
-0.901927
-0.978723
-1.02294
-1.02053
-0.979384
-0.977848
-1.00557
-0.997122
-0.98873
-0.983982
-0.981536
-0.965908
-0.962403
-0.962127
-0.955938
-0.968995
-0.90871
-0.907592
-0.907995
-0.908733
-0.908901
-0.906858
-1.00035
-0.984716
-0.985341
-0.979827
-0.974184
-0.969648
-0.96911
-0.965474
-0.980136
-0.978864
-1.12088
-1.20065
-1.19435
-1.19741
-1.19542
-0.903563
-1.11881
-1.11671
-0.900851
-1.02282
-0.922333
-0.923593
-1.09498
-1.00625
-1.40907
-0.982968
-0.934781
-0.964961
-0.984084
-1.13399
-0.785797
-0.777385
-1.05076
-1.04226
-1.05007
-1.03852
-0.759786
-1.13233
-1.03894
-1.04699
-0.852605
-1.06337
-1.03937
-1.03413
-1.04617
-1.04914
-1.10538
-1.04703
-1.04954
-1.05104
-1.06408
-0.784729
-0.851712
-0.937926
-1.13393
-0.839689
-0.833634
-0.984184
-0.966107
-1.1363
-1.12957
-0.944027
-0.966102
-0.924855
-0.876487
-0.779216
-0.874287
-0.777162
-0.920744
-0.920304
-0.922302
-0.919971
-1.119
-1.1203
-1.19813
-1.19658
-1.20113
-1.19776
-0.908247
-1.12269
-1.12093
-0.905584
-1.02934
-0.875052
-0.777079
-0.876344
-0.777968
-0.923942
-0.920502
-0.92594
-0.922041
-0.927482
-0.922793
-0.92819
-0.926125
-0.87754
-0.782303
-0.923385
-1.03367
-1.03212
-1.02983
-1.02748
-1.02286
-1.00662
-0.987759
-0.986507
-1.01176
-0.993133
-0.989456
-1.01431
-0.99589
-0.989634
-0.986695
-1.00768
-1.00683
-0.987714
-0.990571
-0.989462
-0.992783
-0.995027
-0.991676
-1.0164
-0.997756
-0.993248
-1.0176
-0.998501
-0.993551
-1.01504
-1.03075
-0.925979
-1.11321
-0.738953
-1.16568
-0.992563
-0.976028
-1.14194
-0.785455
-1.15605
-1.06654
-1.0359
-0.97721
-1.3399
-0.968761
-0.960974
-0.90205
-1.06952
-1.07967
-0.849714
-0.96148
-1.0704
-1.07883
-0.988567
-0.967872
-1.33207
-0.981446
-1.03888
-1.04502
-1.04764
-1.03941
-0.977304
-1.06942
-0.944228
-0.941236
-1.09471
-0.745308
-0.729581
-0.798523
-1.14076
-0.783474
-0.772361
-0.785767
-1.14749
-0.784424
-0.775847
-0.778897
-1.14246
-0.800103
-0.868301
-1.43649
-1.05813
-0.992343
-0.865832
-0.860516
-1.15361
-0.979745
-0.999933
-0.994
-0.993134
-0.991541
-0.989422
-0.986548
-0.988256
-1.00748
-1.02277
-0.901609
-1.11692
-1.11831
-0.904264
-1.11893
-1.11981
-1.19786
-1.19656
-1.20078
-1.19765
-0.752787
-1.11629
-0.777548
-1.1177
-0.751375
-1.11573
-0.776745
-1.11553
-0.886949
-0.850399
-1.01996
-0.900185
-1.02038
-1.15025
-0.925019
-1.1203
-0.935213
-1.12376
-1.12273
-0.926863
-1.12018
-0.9394
-1.12493
-0.928968
-1.12179
-0.938918
-1.1324
-1.13339
-0.934131
-1.10963
-0.928319
-1.1056
-1.10795
-0.935464
-1.13189
-1.13273
-1.1045
-0.92786
-0.978932
-0.933719
-0.929263
-0.927753
-0.926071
-0.924452
-0.922941
-0.874178
-0.874878
-0.922417
-0.920005
-0.923994
-0.920433
-1.12063
-1.12218
-0.908777
-1.12247
-1.12578
-1.20589
-1.19912
-1.21218
-1.20177
-0.758792
-1.10347
-0.780916
-1.1279
-0.755193
-1.11469
-0.779005
-1.12203
-0.88925
-0.851952
-1.01979
-0.905645
-1.02858
-1.14468
-0.928258
-1.11504
-0.935243
-1.14095
-1.12742
-0.935424
-1.11228
-0.921171
-1.0959
-1.18063
-0.931724
-1.12681
-1.0444
-0.953386
-0.886141
-0.953657
-0.984497
-0.832114
-0.867583
-1.13732
-1.07386
-0.779957
-0.899492
-0.904236
-0.906354
-0.906292
-0.905651
-0.905316
-0.906485
-0.88144
-0.891227
-1.03149
-0.895405
-0.682117
-0.821354
-0.935184
-0.853513
-1.23303
-0.757956
-0.883663
-1.13182
-0.993063
-0.891353
-0.939832
-1.13237
-0.915189
-1.0904
-0.924778
-1.11892
-0.929834
-1.11321
-1.11122
-0.920611
-1.11792
-0.903827
-1.11895
-0.981615
-0.967053
-1.11907
-0.964208
-1.12247
-0.975385
-0.97438
-0.961106
-0.963593
-0.923967
-1.00134
-0.976766
-0.920626
-0.975119
-0.817544
-1.00201
-0.885887
-1.13437
-0.929245
-1.1232
-0.928239
-1.11435
-1.11532
-0.924221
-1.11759
-0.934214
-1.1163
-0.922351
-1.11831
-0.936198
-1.11922
-1.11888
-0.921885
-1.12028
-0.971242
-0.969413
-1.11918
-0.967115
-0.966108
-0.968039
-0.972006
-1.12461
-0.965049
-1.15251
-0.967824
-0.954651
-0.998761
-0.985889
-0.978904
-0.958588
-1.14843
-0.987756
-0.85112
-1.01858
-0.898992
-1.14936
-0.924129
-1.11966
-0.933434
-1.12015
-1.12096
-0.925024
-1.11938
-0.938264
-1.12185
-0.925668
-1.12141
-0.939295
-1.12527
-1.12588
-0.92761
-1.12174
-0.928142
-1.01753
-1.016
-0.997618
-0.991834
-0.989695
-0.986794
-0.9885
-0.98774
-1.00657
-1.01165
-1.02726
-0.923209
-0.924783
-0.926435
-1.03133
-1.01621
-1.01415
-0.995809
-0.993085
-1.01288
-1.00781
-0.930381
-1.12158
-0.924566
-1.12069
-1.11251
-0.92235
-1.11827
-1.11882
-1.11199
-1.11221
-0.92434
-1.11831
-1.12055
-1.1155
-1.12416
-0.927228
-1.12048
-1.0945
-1.09119
-1.09211
-1.0936
-0.927155
-1.12312
-1.12118
-0.930377
-1.11172
-0.9243
-1.11995
-1.11871
-0.934617
-1.11602
-0.92422
-1.12069
-1.11919
-1.11909
-1.11957
-0.922532
-1.11683
-1.1165
-0.934609
-1.1163
-0.924226
-1.11885
-1.1213
-1.11893
-0.932186
-1.11999
-1.14895
-0.924329
-1.11447
-0.928825
-1.12336
-1.14901
-0.928939
-1.10256
-1.09208
-1.15148
-0.939616
-1.13338
-0.915703
-1.14304
-0.938267
-1.14161
-0.915662
-1.13471
-0.93954
-1.15008
-1.09296
-1.10152
-0.912899
-0.966173
-0.958067
-0.963032
-0.737427
-0.997816
-0.948509
-0.971551
-0.973196
-0.733486
-0.960341
-0.927539
-0.946853
-0.998978
-0.737286
-1.37535
-1.01284
-0.986845
-0.850314
-1.12997
-0.958988
-0.929785
-0.931406
-0.957325
-0.894025
-0.991173
-1.13176
-0.831491
-1.01271
-1.37494
-0.987472
-1.40441
-1.00787
-0.92491
-0.923708
-0.922948
-0.924947
-1.01527
-0.936897
-1.11927
-0.923679
-1.12035
-1.12108
-1.11983
-1.12327
-0.925211
-1.11928
-1.12103
-0.934136
-1.11985
-1.15075
-0.923998
-1.1177
-1.14957
-0.899606
-1.0193
-1.01955
-0.851503
-1.02074
-1.02137
-0.853202
-1.02185
-1.02454
-0.853031
-1.02076
-1.02954
-0.851329
-1.00459
-0.965046
-0.991961
-0.964495
-0.992546
-0.962825
-0.990954
-0.960976
-0.989479
-0.959432
-0.988426
-0.851802
-1.01409
-1.14967
-0.898201
-1.02186
-0.999673
-0.838351
-0.986312
-0.958903
-0.954699
-1.00238
-0.886489
-1.18169
-0.945122
-1.13243
-0.912993
-0.966129
-0.966519
-0.977002
-0.758694
-0.885299
-1.23254
-0.682258
-0.936044
-0.817718
-0.974812
-0.920706
-0.82173
-0.853793
-0.992491
-0.89286
-1.13177
-0.924035
-0.962753
-0.958146
-0.971214
-0.977527
-0.971633
-0.970159
-0.970741
-0.924917
-1.12052
-1.1538
-1.1506
-1.12049
-0.977325
-0.975226
-0.973524
-0.967901
-0.965243
-0.963345
-0.963681
-0.979522
-0.935963
-1.12269
-0.927048
-1.1204
-1.12618
-1.12005
-1.1601
-0.92645
-1.1242
-1.15062
-0.903133
-0.752794
-0.986274
-0.973327
-0.978566
-0.992383
-1.12619
-1.20639
-1.19919
-0.781435
-0.878837
-0.877791
-0.779456
-0.925544
-0.921296
-1.12303
-0.926639
-0.922305
-1.12461
-0.911474
-1.03299
-0.928126
-0.92959
-1.03152
-1.01566
-1.01755
-0.998594
-0.997683
-1.01716
-0.993427
-0.996476
-0.993366
-0.99183
-1.01538
-1.01435
-1.0119
-0.993052
-1.01249
-1.02716
-1.02918
-0.906225
-0.984196
-0.98199
-0.968012
-0.9699
-0.975561
-0.965894
-0.964588
-0.957798
-0.970203
-0.918927
-0.98073
-0.973799
-0.971532
-0.975537
-0.978091
-0.983529
-0.983016
-0.980498
-0.993768
-0.987842
-1.12362
-1.12902
-0.912864
-1.12524
-1.00153
-0.986344
-0.983324
-0.988255
-0.889843
-0.949462
-1.21045
-1.24719
-0.744838
-0.996002
-1.36158
-1.01662
-0.848694
-1.00169
-1.01277
-0.865209
-0.867359
-1.44924
-1.03663
-1.00436
-1.27765
-1.10215
-1.10357
-1.04427
-1.06584
-0.788871
-1.15802
-0.977553
-0.998201
-0.993638
-1.01855
-1.01743
-1.01634
-0.927785
-0.925521
-0.921087
-0.926554
-0.922021
-0.87856
-0.87752
-0.876112
-1.15321
-1.15021
-0.926515
-1.11988
-0.936566
-1.12979
-1.12386
-0.929723
-1.11932
-0.938582
-1.12273
-0.929439
-0.927848
-1.01672
-1.03111
-1.03274
-0.911935
-1.01761
-0.998507
-0.997603
-0.995749
-1.01484
-0.924404
-0.922468
-0.923309
-1.12255
-0.965219
-1.11224
-0.958755
-1.09487
-1.14431
-0.927289
-0.959925
-0.974553
-0.726717
-0.965098
-0.964282
-0.968457
-0.973613
-1.12064
-0.972799
-0.959011
-1.01862
-0.988753
-0.971266
-0.960481
-1.15021
-0.990178
-0.852183
-1.02093
-0.902338
-1.02353
-0.962271
-0.991744
-0.973814
-0.971844
-0.975636
-1.12121
-0.97104
-1.11959
-0.966502
-0.977783
-1.12304
-0.972951
-1.12174
-0.968815
-0.980037
-1.1258
-0.963968
-1.1595
-0.991214
-0.850289
-1.00369
-0.908571
-1.1737
-0.964654
-0.977332
-0.984713
-0.97373
-0.949273
-0.891701
-0.936957
-0.919355
-0.975054
-0.982009
-1.12828
-0.973409
-0.982916
-0.973817
-0.959597
-0.938142
-0.971571
-0.974583
-0.974128
-1.12559
-1.12246
-0.9705
-0.967718
-0.975758
-0.985929
-0.977666
-0.965998
-0.938215
-0.971102
-0.973547
-0.972569
-1.12159
-0.986882
-0.984794
-0.982992
-0.905626
-0.905218
-0.906213
-0.868833
-0.896853
-0.907299
-0.909089
-0.911776
-0.989231
-0.980955
-0.981252
-0.979026
-0.931455
-0.725748
-0.812118
-0.917405
-0.973826
-0.985905
-0.981005
-0.971795
-0.966477
-0.963545
-0.962907
-0.964727
-0.970816
-0.969467
-0.958157
-0.960957
-0.960985
-0.927395
-1.12997
-0.923617
-0.97739
-0.966236
-0.977131
-0.973933
-0.928855
-1.11395
-1.11609
-0.923294
-1.00781
-0.987722
-0.944088
-1.00671
-1.02293
-0.876729
-0.929041
-1.36744
-1.21187
-0.750542
-0.874519
-1.02739
-1.01288
-0.993041
-1.01173
-1.01408
-0.995737
-1.01526
-0.924874
-0.926557
-0.92671
-0.928401
-1.01849
-0.939839
-1.12286
-0.925772
-1.1214
-1.12658
-0.929017
-1.12085
-1.12346
-1.12435
-1.12648
-0.929805
-1.11908
-1.12883
-1.1236
-0.937342
-1.13033
-1.14509
-0.906496
-0.755255
-0.98176
-0.972701
-0.976183
-0.983375
-0.984933
-0.953715
-0.949151
-0.891744
-0.972425
-0.937
-0.919024
-0.976003
-0.983551
-0.970485
-0.965967
-0.977051
-0.975929
-1.12243
-1.12171
-1.12273
-1.12181
-0.9277
-1.12395
-1.122
-0.939976
-1.12524
-0.931288
-1.12442
-1.12255
-0.939441
-1.13152
-1.1363
-1.13359
-0.937513
-1.03289
-1.01774
-0.994262
-0.9967
-0.995955
-0.998112
-0.929191
-0.922315
-1.11935
-0.797217
-0.732572
-1.15624
-1.0651
-1.06651
-0.977602
-1.0405
-1.04809
-1.06456
-0.776143
-1.14638
-0.954546
-1.14824
-1.15423
-1.14841
-1.14784
-1.11851
-0.890965
-1.0452
-1.33268
-0.75373
-0.985452
-1.11674
-1.03876
-1.10265
-1.02642
-0.992603
-1.2938
-1.08604
-0.803895
-0.870353
-1.44265
-0.862804
-1.1523
-0.800944
-1.15443
-0.956062
-1.00152
-0.996554
-1.01568
-1.0159
-1.03129
-1.01666
-1.01805
-1.01666
-0.997288
-0.998701
-1.0187
-1.01719
-1.03135
-0.928402
-0.930437
-0.929907
-1.01702
-0.93391
-0.880014
-0.780413
-1.20373
-0.771769
-0.987675
-1.10437
-0.936867
-0.981845
-0.986254
-1.1183
-0.793733
-0.729155
-1.15819
-0.977487
-0.956122
-1.14777
-0.772144
-1.14839
-1.06502
-1.0653
-1.06844
-0.945889
-1.04484
-1.33185
-0.985303
-1.03904
-1.04445
-1.04578
-1.04958
-1.06493
-0.780921
-1.14837
-1.08223
-1.04634
-1.08048
-1.06559
-0.777134
-1.15042
-0.957654
-1.15446
-1.15386
-1.02534
-0.933812
-0.934364
-1.02558
-1.02092
-0.886363
-0.936181
-0.93466
-0.979167
-1.02056
-1.02474
-1.02678
-0.94275
-1.19449
-0.96097
-0.966478
-0.978059
-0.973427
-0.970671
-0.969835
-0.971196
-0.975698
-1.11925
-1.11748
-0.932277
-0.875466
-1.0294
-0.934133
-1.12005
-1.12165
-0.92542
-1.12231
-1.12048
-1.11894
-0.936894
-1.11972
-0.974098
-0.961989
-0.963782
-0.97131
-0.971462
-0.968054
-0.973987
-0.962457
-0.965246
-0.97046
-0.977219
-1.13393
-1.13036
-1.13437
-0.977428
-0.977065
-0.975971
-0.93868
-0.979422
-1.12431
-1.12304
-0.935873
-0.878774
-0.876742
-1.03328
-0.93751
-1.1269
-1.12816
-0.981071
-0.964625
-0.962633
-0.960892
-0.95947
-0.958807
-0.9544
-0.920482
-0.974953
-0.98662
-0.989122
-0.989632
-0.977617
-0.991716
-0.993358
-0.996187
-0.982688
-0.977647
-0.92478
-0.974148
-0.979744
-0.979659
-0.970663
-0.958243
-0.937551
-0.973438
-0.971042
-0.95813
-0.940902
-0.970314
-0.970378
-0.936583
-0.966175
-0.881092
-0.938916
-1.1266
-0.935904
-0.995056
-0.977055
-1.15217
-1.08303
-1.08592
-1.1165
-1.02611
-1.10229
-1.10356
-1.10208
-1.08334
-1.04369
-1.09916
-1.29246
-1.1015
-1.10463
-1.18387
-1.15444
-1.29905
-1.30024
-1.28005
-1.29628
-1.29422
-0.953201
-0.95694
-0.996629
-1.15984
-0.81799
-0.953139
-0.985173
-0.938677
-0.921641
-1.13601
-0.926141
-1.12091
-0.901369
-0.878553
-0.901646
-0.87319
-0.888754
-0.889096
-1.14841
-1.116
-1.11912
-0.968881
-1.29431
-1.12903
-0.982476
-0.751311
-0.900895
-0.72209
-1.13424
-0.751114
-0.751222
-0.750709
-0.88798
-0.849911
-0.920401
-0.898563
-0.957837
-0.949742
-0.753853
-0.923825
-1.1319
-0.777342
-1.04591
-0.750736
-1.09602
-0.922261
-0.939257
-0.875215
-0.848545
-0.729315
-0.923783
-0.924947
-0.923524
-0.778471
-0.92191
-1.12506
-0.924814
0.975421
0.964141
0.975429
0.968828
0.963696
0.962459
0.963534
0.966701
0.972095
0.981291
0.970157
0.966397
0.720301
1.01535
1.15046
0.903492
1.00421
0.952801
1.19267
0.892118
1.14353
1.00615
0.843607
1.02995
1.02051
0.856706
1.02667
1.02201
0.856037
1.02402
1.02065
0.850381
1.02233
1.01808
0.850376
1.01784
1.01876
0.84824
1.01137
1.02183
0.837413
0.995598
1.00244
0.816315
0.933295
0.680965
1.23014
0.75859
0.88495
0.996681
0.738209
0.946481
0.974184
0.735361
0.966868
0.965045
0.740838
0.977654
0.937075
0.73449
0.967591
1.16209
0.805932
1.08006
1.0179
0.93775
0.942355
1.11687
0.933607
0.938419
0.938229
1.1261
0.94008
0.936845
0.921677
1.12747
0.95784
0.937994
0.889392
1.12979
0.98909
0.94358
0.851743
0.818897
0.719085
0.893354
1.05295
1.09459
1.10468
1.11151
1.10987
1.1123
1.11312
1.11339
1.1163
1.11673
1.11842
1.11927
1.12123
1.12018
1.12213
1.11553
1.09996
1.04677
0.860199
0.976777
0.996065
1.02698
0.955147
0.720496
1.29031
0.997398
1.05624
0.993461
1.03136
1.15447
1.18249
1.10028
1.04912
1.05335
1.04969
1.10017
1.29052
1.05618
0.845348
0.855847
0.955654
0.868321
0.8458
1.01
1.30095
1.03127
1.37366
0.993331
1.15446
0.976595
0.996128
1.04859
1.22338
1.19661
0.900007
1.16574
0.888788
1.12018
1.02757
0.719879
0.954211
0.985753
1.15002
1.10989
1.13381
1.12267
1.12647
1.12243
1.12317
1.11999
1.12196
1.11629
1.12232
1.11202
1.12208
1.10864
1.10593
0.956014
1.38662
0.971621
0.952802
1.09395
1.11531
0.93376
1.11752
1.11558
0.937804
1.1209
1.1175
0.938787
1.12311
1.11905
0.939738
1.12543
1.12084
0.940568
1.12756
1.12227
0.939804
1.13332
1.10706
0.928585
1.16
0.940527
1.14772
0.983712
0.709279
0.990301
0.944987
1.15019
0.960223
0.719036
1.01923
0.903231
1.16915
1.10677
1.13501
1.12958
1.1244
1.13355
1.11681
1.13421
1.11884
1.11702
1.12246
1.11271
1.12367
1.10172
1.11494
0.962774
1.39118
0.999774
0.944507
1.05573
1.21149
0.902663
1.19571
1.19349
0.90471
1.19583
1.19541
0.905785
1.21311
1.09191
0.937849
1.14714
1.10947
0.938855
1.13706
1.1201
0.938086
1.13694
1.11476
0.924479
1.14481
1.00649
1.15043
0.899265
0.732337
1.22547
0.850173
1.19091
1.14709
0.89266
1.00956
0.932568
0.813046
0.676464
0.862357
0.726302
1.04818
1.1039
0.75785
1.19783
1.10842
0.899141
1.22273
1.16653
0.888377
1.11997
1.04985
0.784924
0.942299
1.37438
0.993125
1.15437
1.03141
1.301
1.01032
0.846165
0.955891
0.868314
0.804003
1.15704
0.855808
0.866545
0.79928
0.796455
1.1539
0.861401
0.860865
0.795659
0.799448
1.15383
0.86707
0.855418
0.802633
0.868636
1.15677
0.95566
0.845551
1.0315
1.00995
1.30148
1.03147
1.15439
0.992349
1.05655
1.28794
1.00084
1.02664
1.27625
1.02593
1.00158
1.28754
1.05616
0.84567
1.09526
1.18178
1.10024
1.43695
1.0252
0.948798
0.987067
0.942877
1.16106
1.10771
1.10755
1.11081
0.928449
1.16153
1.14932
0.987965
1.14827
0.941567
0.953001
1.02732
1.4499
1.10398
1.1003
1.43655
1.0252
0.948733
0.887054
1.05012
1.223
1.19717
0.757776
1.10085
0.78542
1.04643
0.726647
0.994978
1.12006
1.03113
0.949846
0.987701
0.986632
1.14818
0.950784
1.03011
0.995284
0.975699
0.865864
0.88981
0.841299
0.811405
0.976417
0.916392
0.969507
0.975886
0.988226
0.995075
0.852951
1.00185
1.03027
1.15623
1.16601
1.14326
1.17992
0.899384
1.0428
1.0218
0.904494
0.75735
1.1193
1.12989
0.752643
1.20036
1.12576
0.907504
1.20113
1.12474
1.1272
0.908748
1.20507
0.782612
0.881642
0.886212
0.938565
0.786503
1.12232
0.888436
1.11107
0.917941
0.916728
0.887822
0.853499
0.998108
0.967975
0.960992
0.976015
0.974947
0.968322
0.934374
0.940356
0.975249
0.953383
1.1501
1.16127
1.10681
0.928977
1.10925
0.938408
1.13391
1.13418
1.12419
0.940345
1.12074
0.931933
1.12992
1.12576
1.12491
0.941332
1.1176
0.927838
1.1289
1.12217
1.12246
0.940619
1.11671
0.92313
1.12459
1.12166
1.11743
0.939046
1.1167
0.917656
1.12051
1.12216
1.1121
0.937438
1.11458
0.914535
1.11668
1.12213
1.10839
0.933483
1.11522
0.911159
1.09282
1.10368
0.96555
0.95296
0.970382
0.787992
0.820192
0.791072
0.821135
0.892518
1.39033
0.948897
0.870922
1.13828
0.871558
1.07184
0.754912