/*--------------------------------*- C++ -*----------------------------------*\
| =========                 |                                                 |
| \\      /  F ield         | OpenFOAM: The Open Source CFD Toolbox           |
|  \\    /   O peration     | Version:  2306                                  |
|   \\  /    A nd           | Website:  www.openfoam.com                      |
|    \\/     M anipulation  |                                                 |
\*---------------------------------------------------------------------------*/
FoamFile
{
    version     2.0;
    format      ascii;
    arch        "LSB;label=32;scalar=64";
    class       volScalarField;
    location    "1.1";
    object      gradTy;
}
// * * * * * * * * * * * * * * * * * * * * * * * * * * * * * * * * * * * * * //

dimensions      [0 -1 0 1 0 0 0];

internalField   nonuniform List<scalar> 
5322
(
0.0442436
0.00578748
0.00192113
0.00131397
0.00161859
0.00139861
0.000968598
0.000591998
0.000333215
0.000168895
5.27142e-05
-7.95585e-05
-6.52649e-05
-6.26069e-05
-6.11294e-05
0.000154523
0.000197417
-3.58944e-06
0.000185874
-0.000355311
0.000462919
-0.00076753
0.00101688
-0.00162646
0.00214556
-0.0031291
0.00398468
-0.00576178
0.00713898
-0.00951519
0.0114805
-0.0147791
0.0177841
-0.0186598
0.0197791
-0.0119189
0.0241959
0.0291031
0.0147988
0.0168759
0.0215167
0.0181203
0.0196845
0.020122
0.0191955
0.0200711
0.0195042
0.0208528
0.020447
0.0185646
0.0235009
0.0101196
0.012113
-0.0362497
-0.00166409
-0.0207331
0.0116825
-0.0269183
-0.00116072
-0.0233758
0.0118534
-0.0264366
-0.00102858
-0.0232079
0.0119108
-0.0274522
-0.00146811
-0.0225577
0.0121149
-0.0308473
0.000842207
0.0225603
0.0124866
0.0175497
0.0130144
0.0165747
0.0137662
0.0165379
0.0140914
0.0199075
0.00128166
0.00834438
0.0120238
0.0186949
-0.00105206
-0.00623155
0.00260567
0.00486741
0.0110845
0.00172308
0.00299531
0.000505364
6.34949e-05
5.57452e-05
0.0210365
-0.0126318
0.00042203
0.0127698
0.00041367
-0.000871012
0.00264673
0.000446048
0.0137281
-0.0204442
0.0183592
0.000535747
-0.000451228
-4.90622e-05
1.49504e-05
3.95921e-05
3.34818e-05
2.24478e-05
1.35124e-05
7.0351e-06
2.54316e-06
1.87308e-06
5.59244e-05
-1.7037e-05
-1.00891e-05
-3.56874e-05
4.80917e-05
-1.8005e-05
-4.01053e-05
-5.86985e-05
-6.42458e-05
-2.05614e-06
5.06132e-05
-3.61346e-05
4.08e-06
4.10579e-05
-4.02902e-05
1.85354e-06
4.22927e-05
-4.36984e-05
-1.81088e-06
3.87831e-05
-4.74572e-05
-4.36762e-06
-1.47399e-05
7.34674e-05
5.84688e-05
-4.6443e-05
2.82878e-05
2.19495e-05
-5.42645e-05
8.94455e-06
-4.91685e-05
3.68117e-05
4.06457e-05
-4.60802e-05
-8.23858e-07
-3.95722e-05
4.04871e-05
4.73803e-05
-3.97398e-05
2.69009e-07
-3.52162e-05
4.89136e-05
-1.6172e-07
1.4757e-06
0.000173793
-0.000131558
0.000208841
-0.000324123
2.06248e-05
-0.000121117
9.23951e-06
2.08065e-05
-8.59682e-06
4.02277e-05
-7.88154e-05
7.99967e-05
-0.000164609
1.13042e-06
0.000170262
-0.000237153
0.00024785
-0.000367533
3.00137e-06
0.000365899
-0.000556881
0.000580137
-0.00084972
5.94142e-06
0.000838636
-0.00123379
0.00128128
-0.0018202
1.07758e-05
0.00179373
-0.00253527
0.00262827
-0.0035986
1.95271e-05
0.00354313
-0.00482653
0.00499772
-0.00657051
3.48765e-05
0.00645738
-0.00851521
0.0088064
-0.011055
5.61246e-05
0.0108196
-0.0138551
0.0142988
-0.0168577
8.66301e-05
0.0163847
-0.0205137
0.0206732
-0.0126836
-0.000103457
-0.00163878
0.000843576
-0.000464195
-2.303e-05
0.000105875
0.000183615
1.75934e-05
0.0210577
-0.0126273
4.64242e-05
0.0152336
-0.00246017
-0.00119182
0.00105495
-0.000908628
0.0126788
-0.0207463
0.00013152
8.81109e-05
0.000257378
0.000125189
4.18991e-05
6.11932e-06
-4.78685e-06
-6.14363e-06
-4.19228e-06
-1.28197e-06
-1.40999e-06
-4.37474e-05
-4.76758e-05
-4.79667e-05
-4.35417e-05
1.31402e-05
1.07492e-05
4.17839e-06
-5.44703e-05
2.06374e-05
-5.02367e-05
1.05272e-05
1.31738e-05
4.44558e-06
-4.95377e-05
1.33197e-05
4.56588e-05
2.66472e-05
-5.45256e-05
2.07685e-05
4.97159e-05
6.99779e-05
7.94121e-05
-0.000169443
-0.000169425
-0.000180699
0.000187077
-0.000330094
0.000457396
-0.000721218
0.0010286
-0.00152038
0.00213095
-0.00300696
0.00406155
-0.00556166
0.00712547
-0.00960019
0.0115144
-0.0152538
0.0169143
-0.00271728
0.0116021
-0.00141497
0.000715836
0.0146497
-0.0140297
0.00102756
0.0104384
-0.00907456
0.00064874
0.00659663
-0.00529613
0.0003944
0.00379517
-0.00286226
0.000225528
0.0019954
-0.00144516
0.000118698
0.000958341
-0.000684873
5.771e-05
0.000419265
-0.000313489
3.79363e-05
0.000164041
-1.83497e-05
0.000164223
-0.000312992
3.79897e-05
0.00018776
-0.000180251
6.29694e-05
9.29371e-05
6.36425e-05
6.38874e-05
-0.000158065
0.000148425
-0.000295316
0.000402237
-0.000644747
0.000931956
-0.00136639
0.00194826
-0.00271835
0.00371739
-0.00506949
0.00652249
-0.00877938
0.0105142
-0.0135384
0.0149437
-0.00133312
0.00877875
-0.00596169
0.00103349
0.0207428
-0.0197321
0.00124193
0.0152757
-0.0123201
0.000728053
0.00952936
-0.00699808
0.000416944
0.00541768
-0.00374376
0.000233891
0.00285628
-0.00187764
0.000122231
0.00139296
-0.000879441
6.01919e-05
0.000625982
-0.000396838
3.96335e-05
0.000252136
-0.000195108
6.17941e-05
0.000130088
0.000110636
-5.46332e-05
0.000150039
-3.27297e-05
1.16745e-05
0.000157793
-0.00014203
0.000182774
-0.000261009
0.000415611
-0.000373749
-5.53593e-06
-0.000283994
0.000241902
-0.000176882
2.54058e-06
0.000179583
5.31769e-06
-3.43164e-06
-4.27301e-05
3.34445e-06
-3.42031e-06
2.06733e-06
-2.52738e-06
-1.7576e-06
0.000168637
-0.000169669
0.00024107
-0.000365542
1.07247e-06
0.000566045
-0.00083827
0.00125499
-0.00179174
8.23507e-06
0.00258206
-0.00353593
0.00492267
-0.0064395
2.62209e-05
0.00868845
-0.0107905
0.0140895
-0.0163877
-3.39603e-05
2.80711e-05
4.56061e-05
0.000133204
5.95087e-05
6.73615e-05
0.0087928
-0.0107966
4.39946e-05
0.0128564
-0.016142
0.0143992
-0.0162392
0.000143601
0.0198689
-0.0230715
0.0148852
-0.0116986
-0.023065
-0.00185481
0.000147619
-0.00824647
-0.0022581
0.000246137
0.0108961
0.0129776
0.000778207
-0.0157734
0.00984273
-7.70429e-05
-0.00795843
0.00582372
-0.000146998
-0.00419238
0.00320453
-8.90898e-05
-0.00210421
0.00161915
-6.17576e-05
-0.00101492
0.000786425
-3.78565e-05
-0.000433203
0.000359222
-2.96856e-05
-0.000176292
2.90932e-05
5.70742e-05
-0.000123138
-1.80355e-05
0.000242874
-0.000364096
0.000400345
-0.000595319
0.00088191
-0.00127174
0.00204616
-0.00180873
-1.45442e-05
-0.00144449
0.00125171
-0.000849384
-1.04572e-05
0.000953125
5.16848e-06
-3.3015e-05
-1.55861e-05
-2.17213e-05
-0.000105484
-2.45326e-05
-2.04748e-06
-7.85957e-06
2.29525e-05
1.48802e-05
4.7385e-06
-8.08127e-06
0.000121895
3.83129e-05
4.40782e-06
3.30309e-05
-1.72072e-05
-5.71074e-05
-4.50386e-05
4.09343e-05
8.06952e-05
-8.67913e-05
-0.000125124
-0.000832495
-7.08775e-05
0.0010954
-0.00173578
0.0018127
-0.00250851
0.0034815
-0.00458139
0.00750601
-0.00647072
-4.24209e-06
-0.0056143
0.00494674
-0.00356122
-1.54757e-05
0.0040684
3.95451e-05
-7.54081e-05
-5.51298e-05
2.96474e-05
-0.000481917
-0.000245153
-0.000172941
-0.000245248
-0.000111628
-8.02621e-05
0.000519366
-3.525e-05
-1.16813e-05
0.000105526
-0.000162132
-5.03166e-05
8.10288e-05
0.000146374
0.000259359
-2.18977e-06
-1.2089e-06
4.50233e-05
2.68184e-05
-0.000329019
-3.48374e-05
0.000460045
0.000419412
-0.00068291
5.79243e-05
-0.000721083
-7.77155e-05
0.00103358
0.000959825
-0.00144003
0.000119434
-0.00152657
-0.000146234
0.00213499
0.00200317
-0.00285269
0.000227466
-0.00303253
-0.000204254
0.00405053
0.00382433
-0.00528677
0.000399639
-0.00563875
-8.77141e-05
0.00703057
0.00669986
-0.00910842
0.000661522
-0.00975856
0.000758079
0.0110611
0.0107732
-0.0143017
0.00104974
-0.0152805
0.00394379
0.0155241
0.0155208
-0.0019233
0.000724873
-0.00241526
0.0539327
-0.0272123
-0.0282026
0.0404481
0.0107114
0.00361164
-0.0297254
-0.00726006
-0.00445278
0.0118772
-0.0125185
-0.000242905
0.000691008
-0.00268971
-0.00293346
-0.000648063
0.000767001
0.000376123
-0.000208197
-0.000440231
-0.000147813
0.000168909
4.3405e-05
1.74394e-05
5.67306e-06
-2.23204e-07
-2.71846e-06
-8.49036e-06
-3.69427e-06
8.17735e-05
-8.22512e-05
-3.93382e-07
3.79054e-07
-8.42519e-05
8.26724e-05
-4.23499e-07
1.30999e-07
-3.61734e-07
-6.33312e-06
-4.15579e-06
1.47528e-05
-3.58369e-07
1.69337e-05
-6.24507e-06
-7.68336e-06
-1.04607e-06
2.92341e-05
-3.60311e-05
3.69755e-05
-2.82769e-05
-2.89615e-05
-2.29908e-05
1.86467e-06
3.69296e-05
3.14336e-05
-3.067e-05
-1.083e-06
-3.64374e-05
2.66855e-07
6.21314e-07
-1.30209e-06
-1.03654e-05
-1.02614e-05
-2.19501e-05
-3.06637e-05
-6.70291e-05
-0.000118723
-0.000170982
-0.000157553
-6.63618e-05
0.000594695
-0.0017289
-0.000790768
-0.000310029
0.00429915
-0.00564567
0.00622364
-0.00789458
0.0102513
-0.000545579
-0.00978716
-0.000654991
0.00786415
-0.000287963
-0.000990743
0.00015385
0.000101416
0.000219421
0.000268724
-0.000259893
-0.00302853
0.0104651
-0.00511127
-0.016637
-0.00274335
-0.00360743
-0.0417701
-0.0119248
0.00156206
-0.0179104
0.0128555
0.000667854
0.000540489
0.0155133
0.0129778
0.00161616
-0.00149993
0.0169907
0.0152935
0.00170024
-0.00178908
0.0154791
0.0173856
0.00158964
-0.00398205
0.0129394
0.0175664
-0.00633126
0.0104994
-0.00908776
0.00974267
-0.0380704
-0.0205243
0.00316726
-0.00941238
0.017292
-0.00109637
-0.0279061
0.0165701
-0.000297834
-0.0194971
-0.0194515
-0.027829
0.00867287
-0.0143235
-0.00977221
0.0145041
-0.0238751
-0.00390893
0.01442
-0.0135022
-0.00138363
0.00972399
-0.00748747
-0.000704202
0.00576541
-0.00407202
-0.000433261
0.00314714
-0.00211206
-0.000251847
0.00160012
-0.00102221
-0.000125773
0.000760348
-0.000460338
-4.25659e-05
0.000351761
-0.000186821
2.41521e-05
0.00014898
-5.67756e-05
0.000109636
0.000129501
-0.000196646
0.000251576
-0.000400729
3.99536e-05
0.000147848
-0.000158284
6.15744e-05
6.34067e-05
6.40145e-05
9.27695e-05
7.91946e-05
6.28723e-05
0.000127391
8.08481e-05
-5.26677e-05
-0.000165228
-0.000324268
-0.000327967
-0.000617954
-0.00115259
-0.000898946
-0.000450004
-0.000279846
0.00222713
-0.00321634
-0.00019893
-0.00012316
-0.00022828
1.74317e-05
-0.00295543
0.00258367
1.16595e-05
0.00182583
-0.00259167
1.4311e-05
0.00361717
-0.00492502
3.65307e-05
0.00661431
-0.00866878
7.77072e-05
0.0111175
-0.0140488
0.000113453
0.0167991
0.000138379
0.000344416
2.31363e-06
-3.45157e-05
-7.0161e-05
9.04989e-06
2.20867e-05
1.44994e-05
7.13838e-06
2.68184e-06
7.18819e-07
2.23181e-07
6.40854e-07
2.25092e-06
-8.02551e-05
2.05701e-06
5.62426e-06
-4.53654e-07
-2.72528e-06
-6.39778e-06
-1.29248e-05
-2.72744e-05
-5.95488e-05
-0.000123124
-0.000168246
0.000710044
-0.000220067
-0.000568865
-0.000786877
0.0150811
-0.0161666
0.0185687
1.29521e-05
-0.00263428
0.00218375
0.00666239
1.56288e-05
-0.00601955
0.00561311
0.00571912
-1.63163e-06
-0.00640113
0.00595793
0.00515326
-1.33758e-05
-0.00809133
0.00766399
0.00725344
-0.000165533
0.0105964
-0.011143
0.0108744
-0.0116517
-0.00109034
-0.00564924
0.0079663
-0.000728992
-0.00770151
-0.000185547
-5.51378e-05
0.0262875
-8.17143e-05
-0.0264609
0.0171545
-0.000619432
-0.0177463
0.0178018
-0.000394081
-0.0186419
0.0266435
-0.000258974
-0.0266614
0.0223203
-0.0222543
0.0220941
-0.0226543
0.000122229
-0.0263583
0.0260787
-2.02712e-05
-0.0178068
-0.000698509
0.0179402
-0.0153494
6.78064e-05
0.0273659
0.00996038
0.0257849
0.00961304
-0.0104023
0.0149016
0.00217711
-0.010021
0.00948218
0.000875765
-0.00671227
0.00572805
0.000543745
-0.003996
0.00331393
0.000320481
-0.00217629
0.00172607
0.000188472
-0.00110682
0.000859133
8.23e-05
-0.000519455
0.000370994
1.63013e-05
-0.000244826
0.000132553
-5.35628e-05
-0.000157465
-3.82747e-05
-0.000121164
8.25992e-05
8.17118e-06
4.41911e-06
4.74208e-05
1.50074e-05
-7.35222e-05
-5.81519e-05
-1.30525e-05
-4.60209e-05
-2.68947e-05
-1.98355e-05
-5.12212e-05
-2.20153e-05
-2.37421e-05
-5.06691e-05
-7.49889e-05
-8.37249e-05
-6.19601e-05
0.000180772
1.87542e-05
-0.000149375
-3.66459e-05
0.000293976
0.000345103
3.39652e-05
-0.000381546
-5.75073e-05
0.000622286
0.000895999
-3.25216e-06
-0.00139765
5.63119e-05
0.0018988
-2.35867e-05
-0.00286367
0.000106313
0.00373808
-5.29323e-05
-0.00542133
0.000140635
0.00680077
-9.44637e-05
-0.00947778
0.00021741
0.01141
-0.000186086
-0.0153479
0.000145498
0.0174663
-0.000467963
-0.023062
-0.000527686
0.000688898
-0.0138882
0.022701
0.000124601
0.0121258
0.000430196
-0.0094782
0.0155806
-4.38623e-05
0.00767956
0.000318399
-0.00591786
0.0097236
-3.11489e-05
0.00456401
0.000212949
-0.00338054
0.00559264
-1.34084e-05
0.00250739
0.000137812
-0.00179057
0.0029682
-5.36471e-06
0.00127745
7.5856e-05
-0.000872953
0.00145643
-1.24055e-06
0.000597846
3.95081e-05
-0.000398942
0.000663481
-1.05149e-06
0.000264388
1.92204e-05
-0.000182131
0.000286988
-4.63913e-06
0.000142772
-1.10964e-05
3.29493e-05
-0.000129396
-0.000109092
5.61756e-05
-0.000149647
-2.4997e-05
6.13299e-06
-0.000258601
-0.000145959
-0.000127865
-7.62934e-05
-6.2242e-05
0.000161551
0.0001853
2.165e-05
-0.000141135
-3.87132e-05
0.000405209
9.33576e-06
-0.000628067
3.67391e-05
-9.95833e-05
-4.26978e-05
-2.58855e-05
-0.000195763
1.08401e-05
4.96487e-05
-3.11281e-06
-1.22402e-05
-1.14654e-05
5.50892e-05
-1.64646e-05
7.45402e-06
6.50659e-06
2.95595e-07
5.25463e-07
4.62786e-07
9.33651e-07
7.38974e-07
1.67714e-06
-1.75282e-06
-5.99631e-07
0.000563367
-0.000656863
2.39753e-06
-1.48175e-06
-4.88098e-06
2.97711e-07
-0.000246571
8.37647e-08
0.00036805
-0.00057314
1.18848e-06
0.000850746
-0.00126427
4.69166e-06
3.50387e-06
-9.63168e-07
3.19403e-06
4.19842e-06
2.01144e-05
3.03211e-05
1.95955e-05
9.52758e-06
4.1692e-06
3.23345e-06
8.7551e-06
4.49197e-06
7.59601e-07
0.000363378
-0.000543518
0.000491807
-0.000733763
0.00108556
-0.00156134
3.98611e-05
-0.000463288
4.06668e-05
0.00043768
2.97637e-05
-0.000221166
2.01675e-05
0.00017784
-6.51422e-06
6.55695e-06
6.23257e-05
-1.19283e-05
-0.000156578
0.00091306
5.60174e-05
-0.00085116
-0.000113168
0.00123843
0.0016361
0.00015952
-0.00181658
-0.000206556
0.00256187
0.0031055
0.000292145
-0.00348215
-0.000360611
0.00459669
0.00563044
0.00045242
-0.00621851
-0.000574687
0.00750099
-0.0101501
-0.000827577
0.0109322
-0.0154893
-0.000451954
-0.000585151
-0.000109661
-1.76619e-05
2.20245e-05
2.52953e-05
1.89649e-05
1.22344e-05
6.68296e-06
2.29824e-06
1.78264e-06
4.40213e-05
4.80171e-05
4.83829e-05
-8.29082e-06
5.10267e-05
1.13071e-05
1.07099e-05
5.27593e-05
-6.36415e-06
5.52493e-05
-1.59997e-05
2.71008e-06
-3.47909e-06
4.54454e-06
-8.02695e-07
4.11187e-06
1.2103e-06
-0.000233207
1.58296e-05
7.27341e-06
3.58435e-06
7.827e-07
2.81109e-07
-3.08538e-05
3.14652e-05
1.89481e-06
-2.35719e-05
4.33519e-05
-1.18977e-05
4.09134e-06
3.13369e-05
1.38684e-05
6.13493e-07
5.38609e-05
-0.00022658
1.8891e-05
-0.000155438
-3.82614e-05
0.000282149
0.000354055
3.08193e-05
-0.000387668
-5.3842e-05
0.000758667
7.6442e-05
-0.000869929
-0.000111483
0.00132028
0.00159684
0.000156723
-0.00184428
-0.000214689
0.0025437
-0.00352863
-0.000367352
0.00457306
0.000328333
0.00021966
0.000132047
7.0644e-05
3.18168e-05
4.02434e-06
2.23976e-06
1.44537e-06
3.82394e-06
1.65636e-06
-1.21779e-06
-5.08647e-06
-2.70738e-06
-1.89895e-06
-4.12448e-06
-3.08489e-05
-3.11492e-05
-6.97673e-05
-7.43855e-05
-0.00012603
-0.000147568
-0.00059726
-0.00109726
-0.00203653
-0.00220078
-0.00431797
-0.00372218
-0.00210862
-0.00830529
-0.0249313
0.00132145
-0.0400908
-0.0300489
-0.0231025
-0.0154319
-0.0135079
0.00504013
-0.0118669
-0.000537587
0.00310265
0.00040281
-8.33889e-05
0.0146467
-0.016909
0.0189112
0.000171931
-0.00236658
0.00354652
0.00773101
0.000264392
-0.00543141
0.00723622
0.00721322
0.000271492
-0.00580197
0.00744927
0.00678517
0.000197657
-0.00777945
0.00851181
-0.000377256
0.000344779
0.000402372
0.00314051
-0.0132141
-0.0189599
0.00107128
0.0151983
0.000285055
4.18428e-05
0.00950904
0.000132838
-0.0155402
0.019239
3.57916e-05
-0.0221689
0.0131176
-0.0125041
0.0108119
-0.0023817
-0.0149472
0.000368067
-0.018656
0.0253372
-0.0221703
0.0194959
-2.85029e-05
-0.0195138
2.65447e-05
0.0193224
-5.98006e-05
-0.0194176
9.41744e-06
0.0195006
-7.58798e-05
-0.0195744
0.0225667
-0.0258165
0.00190026
-0.0210733
0.0291297
0.00157904
0.000905422
-0.00981159
0.0103959
-0.0107849
4.19671e-05
-0.00772367
0.0071062
0.00050637
-0.00884325
0.00641584
-0.00761877
0.000721311
0.0151786
-0.00823014
0.00482125
0.000973358
-0.00900046
0.00711461
-0.000163679
-0.000131041
-1.09561e-05
0.000212842
9.4609e-05
2.55376e-05
-1.04432e-06
-7.46364e-06
-6.96211e-06
-4.38103e-06
-1.36537e-06
-1.36883e-06
2.3809e-05
2.93911e-05
3.17794e-09
-6.58119e-06
-4.1876e-06
4.59273e-05
1.32945e-05
-4.62896e-05
2.20139e-05
2.81378e-05
-4.95575e-05
-5.36448e-07
-4.75329e-05
-4.3194e-06
-1.49338e-05
-4.34394e-05
5.85593e-05
7.41363e-05
3.44167e-06
1.47805e-05
-3.66696e-06
1.93324e-06
3.68846e-05
-4.04804e-05
-5.32262e-07
-4.65188e-05
4.70344e-05
4.10712e-05
-3.62193e-05
3.00372e-07
-4.35036e-05
8.11925e-08
4.37227e-05
1.3921e-07
4.44257e-07
-2.75019e-06
-3.52604e-06
5.50448e-06
-7.80019e-06
0.000259099
0.000146112
7.95253e-05
-5.33784e-05
-0.000168768
-0.000336304
-0.000620692
-0.00112356
-0.00204083
-0.00379472
-0.00382801
-0.00768183
-0.00835477
-0.0182277
-0.029512
-0.0268102
-0.0269236
0.0110977
-0.0152873
-0.00811236
-0.0087619
-0.025182
-0.0300679
-0.0272624
-0.0272883
-0.0270495
-0.0270999
-0.0310319
0.011244
-0.00110089
-0.00548303
0.033025
-0.00894876
-0.0226556
-0.0207962
-0.00612297
-0.00743152
-0.017168
-0.0176944
-0.00184212
-0.00358408
0.000743774
0.000918229
0.000662784
0.000398441
0.000217706
0.000167399
7.61664e-05
7.46908e-05
2.61766e-05
4.28712e-05
-0.000116964
-0.00025714
-0.000484962
-0.000865995
-0.0015329
-0.00287744
0.00105516
0.000812457
0.000749736
0.000713143
0.000521533
0.000316343
0.000312941
0.000164931
0.000209801
0.000100657
0.000400545
0.000621335
-0.000882849
0.00138065
-0.001873
0.000121653
0.000925407
-0.000647678
6.04091e-05
-3.38261e-06
-2.98847e-05
-3.12241e-05
-0.000296711
-9.91497e-06
-4.97751e-05
2.6857e-05
-2.03028e-05
-2.73169e-06
-5.17517e-06
8.84111e-06
-5.44861e-05
4.05778e-05
-2.77561e-07
-1.21432e-08
3.97024e-09
-6.04711e-09
2.4082e-05
-1.04678e-06
4.48595e-07
3.67491e-07
6.26198e-07
-1.45026e-05
3.94149e-07
6.50396e-06
4.214e-06
5.53644e-06
-3.27455e-06
3.71902e-06
2.61751e-08
5.85743e-07
-1.45079e-05
5.47872e-05
4.99705e-05
-2.75277e-05
-8.27617e-06
-2.19904e-05
4.67267e-05
6.35881e-06
3.03587e-06
5.59473e-07
2.27227e-07
-1.98962e-06
-1.44611e-06
-2.07581e-06
-1.55482e-05
-4.0941e-06
-3.32231e-05
1.03533e-05
-6.61664e-05
-7.20972e-05
-0.000119345
-0.000141915
-0.00136873
0.0019297
0.00283114
-0.00371257
0.00536488
-0.00686865
0.000400162
0.00367044
-0.00271146
0.000229007
6.84192e-06
-5.62932e-05
3.62289e-05
-7.86068e-05
9.54344e-05
-0.00017793
-0.000212544
-0.000185248
-0.000215994
-0.000184299
-0.000137204
3.63723e-05
9.24258e-05
4.13577e-05
0.00285804
0.000129661
0.000117477
4.45095e-05
1.28023e-05
7.53116e-07
-2.64398e-06
-8.28186e-07
-1.06667e-06
-6.91617e-06
4.62777e-06
9.976e-07
-6.57062e-06
1.98853e-05
7.4414e-06
9.23979e-06
4.16995e-06
1.57892e-07
6.06496e-06
5.7902e-06
1.44746e-06
3.44983e-06
7.4337e-06
1.44792e-05
2.38736e-06
5.67804e-05
2.32391e-05
3.56765e-05
0.000140371
5.48157e-05
0.000119373
0.00031125
0.000240372
0.000585711
-0.00245174
-0.00277694
-0.000432057
0.000384446
0.000532526
0.000254532
-0.00665592
-0.000167906
-9.23854e-05
-8.96274e-05
-0.000703051
-0.000225363
0.0158781
-0.000221924
-0.0191996
-0.000154542
-0.000799671
-0.0178773
-0.000830232
-0.000979617
-0.0121562
-0.00638833
-0.0103152
-0.0245141
0.00262216
0.00612297
0.000364138
-0.000341801
-0.000297103
-0.000531825
6.63767e-05
-0.0142574
0.0183707
0.00010358
-0.00414473
0.00189261
0.0061789
4.15744e-05
-0.00776357
0.00494488
0.00499112
-9.88993e-06
-0.00799334
0.00527543
0.00444102
-5.919e-05
-0.00736703
0.00181984
-0.0112416
0.00564129
0.00867483
-0.010408
0.00302098
0.00120525
-0.000610829
-9.66173e-05
-1.29252e-05
2.77512e-05
2.87343e-05
2.07012e-05
1.29759e-05
6.62418e-06
4.06518e-06
7.18355e-06
2.58408e-05
0.000824068
-0.00120567
4.40968e-05
0.00175466
-0.00247931
0.00222248
-0.00308756
0.0042164
-0.00566094
9.71168e-05
-0.00191002
0.000115033
0.00181706
6.30195e-05
-0.000969105
7.3056e-05
0.000934736
1.90602e-05
6.18376e-05
0.000316306
-5.42934e-05
-0.000617991
0.00378729
0.000212893
-0.00333476
-0.00036093
0.00442527
0.00575733
0.000463983
-0.00609307
-0.000569172
0.00917576
0.000762621
-0.0100378
-0.000888947
0.010922
0.0139313
0.000822413
-0.0184546
-0.000652091
-0.0153523
-0.0182369
0.000939489
0.0135313
0.0112257
-0.0150744
-0.000593136
-0.000604006
0.000611876
0.000478825
0.000353086
0.000232468
0.000137457
7.1981e-05
3.53688e-05
6.68043e-05
1.46708e-05
5.3229e-07
2.2733e-05
-7.45052e-07
0.00345709
-0.00472126
0.000128916
0.00629624
-0.00834055
0.00743773
-0.00958934
0.0122634
-0.0146519
-0.000359549
-0.0056147
0.000100155
0.00568161
8.23712e-05
-0.00352252
0.000146174
0.00328942
2.09677e-05
0.000212367
0.00122123
-4.41231e-05
-0.00165542
0.0115607
0.000468644
-0.00929066
-0.00088462
0.011481
0.0138629
0.000827584
-0.0189936
-0.000567118
-0.0135972
-0.0245042
0.000293026
0.0172461
-0.00157006
0.0081489
-0.000294611
0.00537964
0.00502307
0.00245971
0.0015518
0.00998746
-0.0058236
-0.000211052
0.00135286
0.000733878
0.000462436
0.000295085
0.000174633
9.31659e-05
4.1971e-05
1.70573e-05
0.000100155
-6.30644e-05
-0.000104555
-2.647e-05
2.12416e-05
-6.5253e-05
0.000212667
-7.53759e-05
-8.70927e-05
-9.01202e-05
-5.87385e-05
0.000159879
0.000183311
1.87096e-05
-0.000159063
-3.67022e-05
0.000344356
3.18715e-05
-0.000380027
-5.44788e-05
0.000634224
0.000759351
7.69978e-05
-0.000882274
-0.000115741
0.00130391
-0.000204047
-0.000158047
-0.00108055
-7.21742e-05
-0.000480198
0.000169754
0.000170587
5.31549e-05
-8.36995e-05
-0.000133221
-7.82762e-05
-6.68448e-05
-0.000148669
-3.61717e-05
-2.2175e-05
1.2541e-05
1.3688e-06
0.000415656
2.44501e-05
-0.00038178
-5.60346e-05
0.000593353
0.000778308
7.51106e-05
-0.000874368
-0.000109853
0.00159268
0.000161665
-0.00181859
-0.000209754
0.00256448
0.00312074
0.000277451
-0.00425766
-0.000500826
-0.000298287
-0.00223569
0.000564333
0.000567693
0.000325845
-8.02481e-05
-0.000469809
-2.93978e-05
-0.000176756
5.54096e-05
-7.45078e-05
-8.18438e-05
6.25908e-05
0.000174806
-9.83099e-05
-0.000574115
0.00017992
2.87455e-05
0.000151845
-2.95924e-05
0.00192813
0.000118706
-0.00175497
-0.000211601
0.00242632
0.00319542
0.000287276
-0.00346633
-0.000354319
0.00558381
0.000479884
-0.00614377
-0.000580052
0.00750743
0.0093161
0.000707752
-0.0121884
0.000439188
-6.70865e-05
-1.93736e-05
1.64226e-05
1.08857e-05
6.00822e-06
2.91064e-06
1.29201e-06
-1.36678e-06
-1.0386e-06
3.91167e-06
-1.29518e-06
-2.22848e-06
1.89896e-07
9.01347e-06
3.03347e-05
5.22069e-05
1.79265e-05
5.00665e-06
7.49481e-08
6.57404e-07
-8.11536e-07
2.73459e-08
0.000571415
9.51263e-07
-0.000568129
0.000850877
2.04909e-06
-0.00125567
0.00126226
-0.000846286
0.000856451
1.58895e-06
-0.001276
0.00125376
-0.000852047
0.00056681
-9.80724e-07
-0.000579628
0.000371267
-0.000369515
0.000371554
-0.000369059
2.7433e-06
-0.000563432
0.00058248
3.55721e-06
-0.000851968
2.27861e-06
-0.00124765
0.00128245
5.76165e-06
-0.00182411
1.29175e-06
-0.0025593
0.00261674
-0.00256898
0.00258113
4.00772e-06
0.00181576
-0.00180659
1.25696e-06
0.00183254
6.53233e-06
-0.00260429
0.00257024
-0.0018127
-1.63128e-05
-0.00144788
0.00087844
3.91918e-06
0.000955906
-1.0623e-05
-0.000660285
0.000401538
2.19159e-06
0.000418479
-0.000375247
0.000243774
-2.04372e-06
-0.000249672
-2.33731e-07
0.000244247
4.23255e-07
-0.000242822
1.85936e-06
0.000250678
2.80512e-06
-0.000242124
0.000376917
-0.00041666
6.76802e-06
6.44658e-06
3.32403e-06
8.64751e-06
4.70461e-06
-8.20305e-05
8.6245e-05
-8.44925e-05
8.47878e-05
1.15068e-07
-6.97418e-08
-4.10962e-07
-8.61036e-05
8.24112e-05
-4.4893e-06
-2.5273e-06
3.90287e-05
-4.47023e-05
-9.63139e-08
-5.78036e-07
0.000171038
-0.000173804
0.000174546
-0.000170132
0.000178662
-0.000179884
-2.0753e-06
6.77081e-07
-3.87488e-05
2.71693e-06
4.48051e-05
-1.69066e-06
3.5199e-06
4.07628e-06
1.0971e-06
2.41854e-06
4.76661e-06
5.03308e-06
5.20433e-06
-0.00355679
5.8145e-06
-0.00485181
0.00487101
-0.00490963
0.0048669
1.58564e-05
0.00361387
-0.00356227
-2.12155e-05
-0.00295119
0.00179716
1.15991e-05
0.00204375
-0.00127357
-7.1321e-05
-0.000839927
0.00109922
-0.000173918
-0.00171516
0.00219115
-0.000286881
-0.003226
0.00409544
-0.000391556
-0.0056038
0.00713526
-0.000583631
-0.00927504
-0.00118452
-0.000411513
-0.00060446
-0.000214027
-0.000367325
-0.000146409
-0.000227559
-9.10626e-05
-0.000130134
-4.69148e-05
-8.60773e-05
0.000519393
-0.000597194
-3.74629e-05
-0.000371672
0.000243608
-1.6701e-05
-1.41941e-05
-6.66795e-05
-2.27909e-05
-0.000133011
-1.84183e-05
0.000183575
5.06506e-06
-0.000286289
-5.39234e-06
-4.89148e-06
1.5241e-05
4.36809e-06
-8.09038e-06
-8.26887e-05
0.000121618
3.8752e-05
0.00015753
5.29873e-05
3.00666e-05
1.57058e-06
1.13967e-05
-0.000143171
0.000180786
-0.000178189
2.36067e-06
-7.69911e-07
-8.88179e-06
-2.62607e-06
-2.06779e-07
2.34735e-05
4.14257e-05
7.66475e-05
0.00013853
3.03297e-05
-0.00556587
0.0034038
-0.00251051
0.0040406
1.07298e-05
1.70113e-06
-2.05178e-06
7.61406e-07
4.92712e-06
1.33438e-05
2.76653e-05
3.56503e-05
-1.83835e-05
-0.00645585
2.93844e-05
-0.00853159
0.00850069
-0.00969976
0.00595262
7.06523e-05
0.00738671
-0.00458954
-0.000159206
-0.000140905
0.000649856
0.000517189
0.000718986
0.000937792
0.00638805
0.00940039
-0.0118891
0.00135866
4.67288e-05
-7.0003e-05
0.000324404
-0.000187084
-0.000161897
-0.005017
-2.05225e-06
0.000429458
-0.00860038
0.000665536
8.72577e-05
3.31602e-05
8.28241e-05
0.000201374
0.000299007
0.000131643
4.4665e-05
1.77884e-05
1.52893e-05
1.62048e-05
2.34176e-05
3.18361e-05
1.86571e-05
1.24157e-05
1.91421e-05
1.10512e-05
1.00396e-05
3.29598e-06
9.70059e-06
1.18652e-05
7.6126e-05
2.11676e-05
1.194e-05
7.79952e-06
7.08818e-06
4.31838e-06
2.06279e-06
4.92898e-06
3.81878e-06
4.63128e-06
-7.50815e-06
7.54715e-06
1.91783e-05
1.49399e-05
2.87408e-05
4.66494e-05
5.27349e-05
9.95913e-05
4.67456e-05
9.33462e-05
4.21154e-05
0.0105724
-0.0136384
0.000266985
0.0161384
0.000321165
5.94803e-05
0.000189115
0.00123723
-0.00329459
0.0122609
-0.0103587
0.0218262
0.00313811
0.0130549
-0.0116197
0.0101656
-0.00969954
0.00713609
0.0080889
-0.0105007
0.00234945
-0.0114508
0.00754348
0.00778932
0.0144979
-0.000796786
-0.000338211
-0.00181871
-0.000145923
-0.00704477
-0.000160312
-3.13136e-05
2.74409e-05
3.99361e-05
6.73253e-05
3.21584e-05
2.94423e-05
3.47259e-05
3.07738e-05
-5.45072e-06
3.26476e-05
-6.15985e-06
0.000272341
0.000175742
0.000112588
-0.00522506
0.00689212
0.000338318
-0.00582431
-0.000576976
0.00748787
0.00946973
0.000709101
-0.00989998
-0.000865831
-0.0120878
0.000480626
0.000356522
-1.55941e-05
1.03221e-05
-6.24747e-06
0.000207596
3.3408e-05
1.65091e-05
2.2089e-05
1.6252e-05
-1.2842e-06
0.000140043
7.37121e-05
3.2127e-05
-0.000463496
-7.08956e-05
0.000634345
-2.54846e-05
0.000296365
-0.000182382
-0.000127901
0.000166425
-8.53516e-05
-7.4766e-05
-8.30346e-05
5.35679e-05
-0.000157058
-0.000174925
-0.00108491
0.000350163
-0.000173716
-0.000320168
0.000341239
0.000628948
-0.000308397
-0.00272858
0.000584879
0.000109135
0.000614289
-7.52014e-05
-0.00108859
-0.00049499
0.00097287
0.00163267
0.00105241
-0.000329596
-0.00226978
-0.000298179
-0.00220644
0.00092612
-0.000555527
-0.00434505
-0.000501701
0.00461335
0.0013556
-0.000868815
-0.00766956
-0.000608797
-0.00930088
0.00187883
0.000638426
0.00292325
0.000149958
-0.0155259
0.000229078
0.00231831
0.00293661
0.00405338
0.0125019
0.0292923
0.0154312
0.0227421
-0.00224719
-0.00131591
-0.0125369
0.00161282
0.00136469
0.00300602
0.0151472
0.0220679
-0.00215078
-0.00119031
-0.000781111
0.00760519
-0.00742285
0.00129346
0.000911691
0.00140435
0.00096813
0.00246455
0.013913
0.02227
-0.00220739
-0.00119675
-0.000781701
-0.00748593
-0.000960887
-0.000623449
-0.000378153
0.000465804
0.000251055
0.000113732
4.04495e-05
0.000123369
0.000778574
0.00116647
0.00150396
-0.00136361
-0.00184671
0.00240903
0.0126863
0.0248927
-0.00421044
0.00536479
0.00236533
0.00184242
0.000132657
-0.000137353
-6.98232e-05
-3.25397e-05
-1.38834e-05
-5.00383e-06
-8.02252e-07
1.94063e-06
8.86416e-07
3.77874e-07
-3.12582e-07
2.12149e-06
1.06102e-06
9.91185e-07
1.27492e-06
-4.61407e-06
-1.48582e-05
-2.2328e-05
5.34149e-06
1.37144e-05
-0.000953436
0.000856321
6.6727e-06
4.54747e-06
5.44369e-06
3.71291e-06
3.95548e-06
6.15511e-06
1.70796e-05
4.12261e-06
4.31254e-05
-0.000253474
2.68449e-05
3.68489e-05
7.09226e-06
7.17165e-06
9.02979e-06
2.79227e-06
-2.67999e-06
1.37121e-05
1.00577e-05
8.89818e-06
8.7915e-06
8.14669e-06
1.04326e-05
3.46416e-05
3.20884e-05
0.00846602
2.76304e-06
-0.00844464
0.0108091
-1.66443e-05
-0.0134945
0.01349
-0.0107931
0.0109862
3.21327e-05
-0.0136093
0.013629
-0.0107742
9.49156e-06
0.0124828
-0.00784326
-0.000138806
-0.000134418
0.000100457
0.000235691
0.000316634
-0.000100247
-0.00142078
-0.00292048
-0.00535014
-3.26081e-05
-0.00197626
-0.000835352
-0.000250292
0.000248549
0.000229367
5.30799e-05
4.60741e-05
4.29984e-05
1.99611e-05
0.00656748
-0.00645474
0.00647647
-0.00654537
-1.52249e-05
-0.00845029
0.00855505
-1.04286e-06
-0.0109726
-4.46423e-05
-0.0135472
0.0136221
-1.7898e-05
-0.0168267
0.0165756
-0.0190189
8.65408e-06
-0.000143957
-5.03536e-05
1.34423e-05
2.57108e-05
0.000101479
0.000253519
0.000505433
0.00338934
-0.00235794
0.054375
-0.00148396
-0.000237421
-0.00103472
-0.0110732
0.00254841
0.00647084
0.000490405
-0.000125536
-0.0055763
-0.000155244
0.000118876
0.000250097
2.13485e-05
2.79732e-05
0.000554491
0.000325816
-0.0178573
0.0159632
-0.000800386
-0.000475733
-0.000181829
0.00315684
-0.000882197
0.00258238
0.00424446
0.00776698
0.0148531
0.00316063
-0.00804726
0.0032666
-0.0114183
0.00260499
0.00114748
-0.00769321
0.000569037
-0.000127324
6.7031e-06
-2.73344e-05
8.59565e-06
0.000103189
-8.28242e-05
-0.000194097
-5.87485e-05
-0.00021054
-4.60631e-05
5.50541e-06
-2.80941e-06
1.00118e-05
-4.98506e-06
-7.87656e-07
-3.65153e-05
3.353e-06
5.69904e-05
0.000130228
0.000245799
0.00512493
0.0221084
0.00114796
-0.00259918
0.01412
0.000967534
-0.00179226
-0.00146813
-0.00252048
0.0540525
-0.00122448
-0.000256766
0.000497987
9.60257e-05
0.000216233