/*--------------------------------*- C++ -*----------------------------------*\
| =========                 |                                                 |
| \\      /  F ield         | OpenFOAM: The Open Source CFD Toolbox           |
|  \\    /   O peration     | Version:  2306                                  |
|   \\  /    A nd           | Website:  www.openfoam.com                      |
|    \\/     M anipulation  |                                                 |
\*---------------------------------------------------------------------------*/
FoamFile
{
    version     2.0;
    format      ascii;
    arch        "LSB;label=32;scalar=64";
    class       volScalarField;
    location    "1.1";
    object      gradTy;
}
// * * * * * * * * * * * * * * * * * * * * * * * * * * * * * * * * * * * * * //

dimensions      [0 -1 0 1 0 0 0];

internalField   nonuniform List<scalar> 
5322
(
0.649028
0.0611919
-0.00409558
-0.0267805
-0.0146414
-0.00496453
0.000129396
0.00501597
0.0141409
0.0255611
0.000290542
-0.189336
-0.210405
-0.188863
-0.163958
0.354859
0.474649
-0.000753179
0.327819
-0.388785
0.369874
-0.375978
0.368989
-0.377951
0.376872
-0.370088
0.369996
-0.378171
0.377436
-0.373319
0.375985
-0.376533
0.38919
-0.334827
0.321454
-0.160952
0.316311
0.396901
0.198279
0.214784
0.29293
0.244675
0.25338
0.273431
0.26069
0.258249
0.264847
0.282945
0.262299
0.250367
0.314115
0.151932
0.170172
-0.560461
-0.0305428
-0.324269
0.170542
-0.425229
-0.0241569
-0.369568
0.173167
-0.418172
-0.0215672
-0.366825
0.173865
-0.432749
-0.0277975
-0.354778
0.175491
-0.476156
0.0167267
0.417802
0.232707
0.325114
0.24284
0.307575
0.256644
0.306224
0.26002
0.359784
0.0326983
0.12119
0.183092
0.304606
-0.0258618
-0.127071
0.0362535
0.0712658
0.132261
0.0152221
0.034628
0.0063942
0.00100599
0.00118038
0.442435
-0.236413
0.00712736
0.238358
0.00647832
-0.00629249
0.0326277
0.00638005
0.2524
-0.43135
0.386006
0.00523783
-0.00739517
-0.00137417
-0.000222436
0.000417612
0.000473233
0.000576442
0.00130488
0.00261231
-0.00442871
0.00116177
0.134959
-0.0555076
-0.0190776
-0.104159
0.128106
-0.0712904
-0.138922
-0.190038
-0.214747
-0.00865261
0.157403
-0.118777
0.0111293
0.129721
-0.129207
0.00544263
0.134851
-0.13827
-0.00436696
0.125942
-0.151074
-0.0120269
-0.0348705
0.231295
0.191616
-0.125587
0.0832702
0.0647274
-0.132392
0.0142738
-0.129715
0.101752
0.10457
-0.115303
-0.00174242
-0.107593
0.107991
0.116568
-0.10472
-0.00035261
-0.100093
0.127066
-0.00828714
-0.00626719
0.399331
-0.312975
0.346137
-0.367683
0.0124258
-0.237184
-0.00506877
-0.00214379
-0.044379
0.114561
-0.229224
0.228061
-0.382879
0.000873027
0.391069
-0.386427
0.402317
-0.411279
0.00171023
0.405176
-0.415279
0.430721
-0.429623
0.00159842
0.420084
-0.423213
0.436855
-0.435344
0.000982186
0.425206
-0.42661
0.439483
-0.437988
0.0008296
0.42793
-0.429714
0.442566
-0.439627
0.00108043
0.42963
-0.433313
0.446473
-0.439573
0.00142495
0.42896
-0.435602
0.448721
-0.431589
0.00183479
0.419225
-0.432165
0.435773
-0.236385
-0.00106568
-0.0175122
0.00730845
-0.00703757
-0.000431808
0.00276635
0.00367258
1.92086e-05
0.443395
-0.235303
0.00198447
0.280539
-0.038159
-0.0112763
0.00932538
-0.0138288
0.237651
-0.436628
0.00253746
0.00194598
0.00546626
0.00353189
0.001883
0.000845944
6.00302e-05
-0.00115147
-0.00290353
0.00432012
-0.00155369
-0.108642
-0.115716
-0.115769
-0.108893
0.022251
0.038336
0.0241678
-0.146293
0.0767245
-0.155129
0.0384255
0.0222948
0.0242148
-0.15331
0.0533839
0.146688
0.0946918
-0.146234
0.0768831
0.159238
0.222349
0.234847
-0.384717
-0.383846
-0.413114
0.299764
-0.371984
0.341527
-0.365852
0.354089
-0.36491
0.358984
-0.36722
0.360537
-0.373267
0.359731
-0.382946
0.356839
-0.39236
0.350192
-0.0769761
0.166659
-0.0527069
-0.00899085
0.303182
-0.36132
0.00365203
0.323574
-0.361693
0.00171941
0.33363
-0.354552
0.000836329
0.33788
-0.348235
0.000255594
0.337372
-0.345247
-0.000728944
0.331123
-0.345599
-0.00250642
0.313817
-0.351208
0.00825585
0.262666
-0.0242548
0.262437
-0.351777
0.00827154
0.301332
-0.410735
0.164836
0.272541
0.203702
0.190664
-0.362349
0.237766
-0.338378
0.299401
-0.331863
0.318239
-0.331335
0.324668
-0.334514
0.325821
-0.342179
0.32407
-0.351371
0.319325
-0.348867
0.305188
-0.0502007
0.120649
-0.137605
-0.00242142
0.418384
-0.511129
0.00896346
0.458551
-0.4983
0.00455042
0.465968
-0.479569
0.00181745
0.465222
-0.469678
0.000503269
0.46431
-0.466261
-0.000834631
0.462857
-0.465608
-0.00186398
0.454645
-0.469263
0.0105047
0.403995
-0.467003
0.163859
0.380683
0.338292
-0.169844
0.322585
-0.0765682
0.0607665
0.386494
-0.334498
0.312152
-0.293967
0.470875
-0.414573
-0.00327886
-0.463838
0.395643
-0.404654
0.0118899
0.426038
0.0190231
0.00825019
-0.120554
0.0118222
-0.00967932
0.00632655
-0.0023096
-0.000824535
0.389508
-0.390266
0.390634
-0.406208
6.69093e-05
0.419253
-0.422149
0.427252
-0.427424
0.00030008
0.431047
-0.429803
0.434898
-0.430814
0.000356652
0.439311
-0.429278
0.441519
-0.419445
-0.000679811
0.000573999
0.000948967
0.00316248
0.00177538
0.00115534
0.443268
-0.428651
0.00226446
0.506937
-0.501388
0.449135
-0.415206
0.00435667
0.504356
-0.479972
0.305921
-0.213036
-0.340874
-0.0231942
-0.00518425
-0.123205
-0.031671
0.00949398
0.226175
0.295035
0.023489
-0.479844
0.364206
0.00358772
-0.405966
0.370734
-0.000839544
-0.381191
0.374795
0.000138222
-0.367552
0.372889
-0.00265122
-0.366744
0.386916
-0.00663694
-0.349374
0.394734
-0.0248223
-0.311486
0.101082
0.151985
-0.187484
0.0015656
0.306316
-0.260851
0.30613
-0.29944
0.304241
-0.301244
0.490151
-0.429634
-0.00101293
-0.491008
0.427885
-0.426363
-0.00255797
0.485146
-1.36716e-05
-0.0011032
-0.000718179
-0.0280867
0.00626408
0.0391764
0.042578
0.0173367
0.00745084
0.0245399
0.0173737
-0.0223593
0.362081
0.116076
0.0252374
0.0866608
0.01848
0.00552086
0.0038527
0.00132676
0.00076718
0.000983843
0.000930171
-0.275504
0.000263336
0.281322
-0.278378
0.303911
-0.302553
0.307452
-0.303708
0.499349
-0.43161
0.000805581
-0.495065
0.43674
-0.431208
-5.51487e-05
0.493861
0.000976297
0.000970589
-0.000133718
-0.0028225
-0.00157672
0.00416292
0.00301849
0.000404666
0.0131885
0.00945723
0.287081
0.001373
-0.0131936
-0.00105426
-0.0193302
0.00241804
0.190531
0.3638
0.66872
0.0700613
-0.0101491
-0.00467263
-0.0181021
-0.369631
0.00159045
0.344094
0.313177
-0.345775
-0.00248564
-0.364507
0.00265233
0.356299
0.33058
-0.345072
-0.000691174
-0.364896
0.00227891
0.359988
0.337359
-0.34792
0.000317658
-0.368633
0.00616924
0.35964
0.338941
-0.354467
0.000961858
-0.376634
0.0175057
0.35462
0.337185
-0.363103
0.00193236
-0.387692
0.0428323
0.342073
0.332572
-0.367831
0.00398152
-0.392317
0.0959055
0.320879
0.320858
-0.0616341
-0.00873404
-0.0713956
0.846406
-0.378501
-0.386527
0.625404
0.162622
0.0674188
-0.582734
-0.120282
-0.0704256
0.298936
-0.31208
-0.00544953
0.00657737
-0.0392454
-0.0471748
-0.00490978
0.0125214
0.00725331
0.00286513
-0.00391432
0.00166439
0.00279351
0.000824245
0.000102093
-0.000728044
-0.00252747
-0.00486377
-0.016877
-0.00904062
0.235468
-0.235564
0.00283499
0.00152039
-0.239267
0.235751
-0.000556716
0.000980452
-0.00106558
-0.0178575
-0.0113161
0.0427509
0.00463365
0.0491959
-0.0174488
-0.0213957
2.38627e-05
0.078805
-0.091604
0.0919725
-0.0785104
-0.0794782
-0.0679427
0.00253448
0.0912046
0.0820761
-0.0819278
-0.00244111
-0.0918944
-3.58716e-06
1.49789e-05
0.00583693
0.0165435
0.0148079
-0.0328603
0.000623776
0.00013491
0.000924935
0.00273278
0.00672392
0.00289574
0.0238197
-0.0190046
-0.00225117
0.0133859
0.296948
-0.271338
0.313192
-0.308937
0.317222
-0.00766842
-0.28136
0.0080222
0.314777
-0.00120695
-0.0138902
0.00285046
0.00196807
0.00391704
0.00463758
-0.00334195
-0.04691
0.160789
-0.0717836
-0.307984
-0.0391196
-0.0372968
-0.607936
-0.167635
0.0213844
-0.245364
0.181366
0.00834825
0.0102517
0.219537
0.184157
0.025789
-0.0205954
0.244169
0.219436
0.0277978
-0.0248187
0.221568
0.250243
0.0259108
-0.0571965
0.183796
0.25552
-0.0885559
0.133387
-0.116272
0.124288
-0.490709
-0.266501
0.0481225
-0.12111
0.263494
-0.0158903
-0.431873
0.228093
-0.00454562
-0.270844
-0.267765
-0.389239
0.163427
-0.213943
-0.137069
0.237846
-0.492597
-0.0554258
0.346163
-0.425503
-0.0110806
0.369982
-0.38879
0.000691605
0.372126
-0.374044
0.00178481
0.369759
-0.369682
0.00198636
0.368943
-0.368295
0.00559362
0.370433
-0.365567
0.022594
0.381775
-0.327339
0.092081
0.317485
-0.17724
0.336793
0.380388
-0.471746
0.402677
-0.473689
0.0109284
0.236997
-0.362524
0.163676
0.189743
0.205416
0.272515
0.234377
0.164715
0.317357
0.189013
-0.00162537
-0.0276596
-0.0156211
-0.00986802
-0.00609815
-0.0117344
-0.00627704
0.0015709
0.00601091
0.283035
-0.274617
-4.43487e-05
0.000435149
2.6885e-05
3.3873e-05
-0.492372
0.431999
0.000203577
0.432742
-0.435292
0.000461957
0.436206
-0.438088
0.00110489
0.43874
-0.441229
0.001969
0.439117
-0.44211
0.00250868
0.429077
0.0027607
0.00532642
0.000823234
6.81561e-07
-0.00125347
-5.67453e-05
0.000376584
0.000410883
0.000359382
0.000234179
0.000178985
0.000228987
0.00223312
0.00633786
-0.229358
0.00341496
0.0113557
-0.00059797
0.000400023
0.000606761
0.000387835
-4.58495e-05
-0.000784602
-0.00195273
-0.00284798
0.0104126
-0.00295426
-0.00781836
-0.0102287
0.204184
-0.217923
0.276043
0.000398161
-0.03717
0.0310538
0.102427
0.000579816
-0.091031
0.0856835
0.0878495
0.000325949
-0.0973757
0.0914037
0.078453
1.97049e-05
-0.122314
0.116345
0.108748
-0.00207022
0.135683
-0.142867
0.139313
-0.150066
-0.0138555
-0.0828092
0.120297
-0.00989502
-0.114395
-0.00242956
-0.000760395
0.410557
-0.00142643
-0.412966
0.239002
-0.00831659
-0.247163
0.247622
-0.00537853
-0.259528
0.415962
-0.00391156
-0.41577
0.407706
-0.405788
0.403491
-0.413253
0.000946616
-0.412059
0.406576
-0.000826963
-0.24731
-0.00905551
0.249477
-0.212207
0.0019426
0.373401
0.133247
0.392974
0.143684
-0.202721
0.309701
0.0286446
-0.270766
0.292332
0.00598344
-0.282614
0.285533
0.00144057
-0.281781
0.284309
0.000292803
-0.283989
0.281619
-0.00126904
-0.283534
0.281646
-0.00673139
-0.289648
0.267385
-0.0306134
-0.306506
0.200304
-0.14573
-0.388638
-0.117676
-0.3639
0.237844
0.0222675
0.0118901
0.151991
0.0355667
-0.234032
-0.192846
-0.0536216
-0.149186
-0.0967207
-0.07555
-0.165239
-0.082554
-0.0877169
-0.164134
-0.240356
-0.249061
-0.164504
0.408765
0.0225455
-0.240589
-0.00847607
0.329933
0.388191
-0.00435213
-0.286378
0.00184632
0.320212
0.475051
0.0045051
-0.468219
0.000353568
0.473141
0.00109926
-0.470832
0.00130763
0.472384
0.000612958
-0.47308
-0.000961675
0.471867
0.000495338
-0.475647
-0.000132999
0.470837
-0.00100857
-0.479552
-0.00410169
0.463962
-0.00685126
-0.485666
-0.0170102
0.0021956
-0.298512
0.484958
0.0030453
0.311257
2.60033e-05
-0.302588
0.49487
-0.00016197
0.306323
9.11015e-05
-0.304266
0.4967
-0.000128924
0.305019
-0.000230264
-0.303456
0.496725
9.85306e-05
0.303369
0.000477551
-0.304069
0.496417
0.00032513
0.303247
0.000133767
-0.304114
0.495888
0.000540968
0.300647
0.000528355
-0.307227
0.492428
-0.00134861
0.297284
9.60908e-05
-0.313781
0.46946
-0.0185364
0.336782
-0.0602179
0.0774019
-0.382286
-0.337121
0.175891
-0.3215
-0.0943098
-0.0651329
-0.672191
-0.365909
-0.321087
-0.228126
-0.164943
0.366271
0.423662
0.0307583
-0.227938
-0.0108169
0.479684
0.014231
-0.45911
0.00543834
0.00340507
0.00727146
0.018475
-0.316105
-0.0152516
0.153956
-0.022652
-0.0218224
-0.0414919
0.147199
-0.0486699
0.0200497
0.017617
0.000462656
0.00132697
0.0012112
0.000708676
0.000604433
0.00018494
-0.002388
-0.00173632
0.420149
-0.487041
0.00186012
-0.00252491
-0.00473189
-0.000348864
-0.400346
-0.00040933
0.408125
-0.426576
-0.000420974
0.426331
-0.432675
-2.32036e-05
-0.000127464
-0.00104885
-0.000503608
-4.17152e-05
0.000743279
0.000673564
0.000592104
0.000382671
0.000250024
0.000154173
0.00118702
0.00185202
0.000728713
0.404982
-0.407932
0.370721
-0.373113
0.374406
-0.374029
0.00209539
-0.195518
8.27865e-05
0.184405
0.00665201
-0.206145
-0.000719481
0.156631
-0.0159875
-0.0128849
0.058644
0.00268098
-0.0633626
0.467281
-0.00631936
-0.293598
0.00106906
0.300832
0.391683
-0.00273937
-0.309369
0.000329127
0.313829
0.379605
0.000139541
-0.313763
-0.000118665
0.311563
0.381098
0.00256516
-0.31771
-0.000716088
0.306003
-0.321593
-0.00123243
0.288877
-0.32966
0.0128827
-0.00939159
-0.00239879
-0.000909944
-2.577e-05
0.000259847
0.00053221
0.00142153
0.00296559
-0.00439973
0.00134341
0.108789
0.11459
0.115965
-0.0345051
0.156783
-0.0164255
-0.0170581
0.161043
-0.0304673
0.146847
-0.0473904
0.00578777
-0.0130657
0.0125914
-0.00314826
0.00284876
-0.00231035
-0.385347
0.010149
0.0113757
0.00242627
0.000139366
-4.17502e-05
-0.0817893
0.0811215
0.00255368
-0.0689938
0.105814
-0.0215578
0.00909185
-0.0036816
-0.00419294
-0.0205482
0.152599
-0.379549
0.0229243
-0.254879
-0.0104783
0.322905
0.396469
-0.00929916
-0.291694
0.00252994
0.382139
-0.00695636
-0.302505
0.00113216
0.316779
0.38347
-0.00167096
-0.311294
0.000361021
0.314784
-0.314871
-0.00022686
0.312184
0.000661669
0.000274994
-7.13804e-05
-0.00034462
-0.00124982
0.00929924
-0.00613483
-0.000276842
0.00250908
3.81968e-05
-0.00233565
-0.0109843
-0.00925723
-0.00252584
-0.00251041
0.00230991
0.00653026
0.0012232
0.00574323
0.00154776
0.00368645
-0.008591
-0.0121218
-0.0257203
-0.0284885
-0.0607721
-0.0510259
-0.0308103
-0.118123
-0.367358
0.0316686
-0.567813
-0.417298
-0.299392
-0.199011
-0.179575
0.0710922
-0.161369
-0.0157326
0.0378697
0.00150095
-0.006188
0.193673
-0.228864
0.281216
0.00266856
-0.0329599
0.0523152
0.119429
0.00505528
-0.0812779
0.111647
0.111903
0.00550611
-0.0871645
0.115439
0.104715
0.00416819
-0.116556
0.130375
-0.00621151
0.00372097
0.0185723
0.0797319
-0.342138
-0.496322
0.00555483
0.464126
0.0132611
0.0097822
0.300013
0.00181913
-0.492259
0.498796
-0.000740979
-0.471941
0.27739
-0.318081
0.283413
-0.0313038
-0.296558
0.0160355
-0.330318
0.46037
-0.403273
0.418856
-0.00141886
-0.419861
0.000771123
0.416132
-0.00124596
-0.417799
0.000243804
0.419669
-0.00122448
-0.421428
0.410087
-0.472075
0.0271966
-0.327439
0.448135
0.0208448
0.0108037
-0.123508
0.133985
-0.138268
2.99962e-05
-0.115367
0.105971
0.00753016
-0.131757
0.0937827
-0.107085
0.00486602
0.191942
-0.115712
0.0709712
0.0176619
-0.13626
0.107157
-0.00212668
-0.00232582
-7.18751e-05
0.00451544
0.00280554
0.00145011
0.000641109
1.77336e-06
-0.00111841
-0.00283251
0.00435296
-0.00134978
0.0682093
0.0784824
0.000144971
-0.0185945
-0.0114945
0.147854
0.0535705
-0.125492
0.0645335
0.0833856
-0.131365
0.00428565
-0.152093
-0.0118108
-0.0354665
-0.122854
0.192603
0.234265
0.0122332
0.0429808
-0.0104455
0.00587385
0.102758
-0.110425
-0.00133588
-0.115837
0.11551
0.110421
-0.102714
-0.000707333
-0.140132
-6.82742e-05
0.140085
3.12035e-05
7.08288e-05
-0.00254857
0.00836319
0.00371721
0.062595
0.668101
0.363428
0.186997
-0.00156256
-0.0246784
-0.01396
-0.00782859
-0.0105739
-0.0225374
-0.0471646
-0.0515213
-0.104712
-0.115979
-0.2467
-0.416425
-0.370793
-0.374011
0.15886
-0.249351
-0.0969609
-0.105118
-0.323883
-0.425971
-0.378233
-0.377807
-0.382965
-0.376621
-0.427028
0.161099
-0.045572
-0.1335
0.510718
-0.159951
-0.306261
-0.298871
-0.0782746
-0.0971085
-0.22645
-0.237944
-0.0623042
-0.0960315
-0.0232416
-0.00746265
-0.0011814
0.000162183
0.000344026
-0.000669229
-0.00432838
-0.00508397
-0.0189935
-0.00796047
-0.00302058
-0.00574519
-0.00369063
-0.00504678
-0.0120409
-0.0305287
-0.0124394
-0.0121399
-0.0141181
-0.00663607
-0.00176173
-3.92399e-05
-0.00022625
-0.00114047
-0.00112431
-0.00354275
0.298584
0.451058
-0.467555
0.459644
-0.466223
-0.000569985
0.317208
-0.332363
-0.00149462
-0.00283196
0.00147341
0.00516325
-0.338911
0.0155688
-0.154357
0.0952351
-0.0296622
-0.00921655
-0.0109461
0.0140996
-0.132607
0.104167
-0.000781211
-0.000375377
-0.000383909
8.66349e-05
0.0679402
-0.0023347
0.000292473
0.000288389
-0.000196583
-0.0429506
0.000219733
0.0178009
0.0110423
0.01458
-0.0121188
0.010183
-0.000164525
0.00105614
-0.0428331
0.132335
0.131377
-0.0830839
-0.0140041
-0.0657947
0.126248
0.011084
0.00244578
5.41602e-05
6.48091e-06
-0.00250945
-0.00228746
-0.00235396
-0.000478657
-0.0102466
-0.000875846
-0.002332
0.00075751
0.00523912
0.00116284
0.00337518
-0.331392
0.323536
0.462306
-0.46798
0.46396
-0.474026
0.00126585
0.324415
-0.333683
0.000351884
5.1324e-05
6.83135e-05
0.000546044
0.00122557
0.0030259
0.00247067
0.0055175
0.00302242
0.00644383
0.00663124
0.0159853
0.0136365
0.0144727
0.00641911
0.0858177
0.00118568
0.00206354
0.000974845
0.000224923
-0.000758624
-0.00273571
-0.00303948
-0.00116264
-0.00109165
-0.000702758
-0.000155661
0.000109868
0.000252297
0.000393951
0.000347869
0.000207135
-0.00102414
0.00138331
0.0013081
3.33811e-05
0.000156173
0.000283608
0.000454496
0.0008023
0.000929651
0.000860449
0.00173329
0.00205083
0.0014803
0.00330862
0.00435728
0.00359105
0.0225272
-0.0288116
-0.041018
-0.00796329
0.00450054
0.0059944
0.00609557
-0.100879
-0.00170626
-0.00097829
-0.00149785
-0.00982623
-0.00381889
0.213822
-0.00279539
-0.284651
-0.0020658
-0.0128902
-0.263609
-0.0114562
-0.015561
-0.165525
-0.0737228
-0.126802
-0.315329
0.0306114
0.08039
0.00541758
-0.00423747
-0.00356839
-0.00662443
0.00185008
-0.191447
0.272569
0.00192284
-0.0600067
0.0264954
0.0944249
0.000448392
-0.1177
0.0747679
0.0758393
-0.000548881
-0.121783
0.0800705
0.0667648
-0.0012989
-0.111605
0.0253165
-0.151169
0.0668626
0.105964
-0.14687
0.0443652
0.0218152
-0.00890253
-0.00198081
-0.000701509
0.000165987
0.000332137
0.000496331
0.00131845
0.00245125
0.00308758
0.0029153
0.00430792
0.414428
-0.414422
0.00181277
0.416893
-0.417245
0.375143
-0.375655
0.37639
-0.378256
0.00138832
-0.197113
-0.000964952
0.192106
0.00138402
-0.194625
-0.000187889
0.191334
-0.00112181
-0.000752528
0.0619111
0.00117718
-0.0614782
0.464901
-0.000186569
-0.297806
-7.71078e-07
0.301022
0.388787
0.00191687
-0.314268
-0.000719014
0.371482
0.0071515
-0.320646
-0.00245606
0.288354
0.3661
0.00635769
-0.395624
0.0091642
-0.328813
-0.391776
0.0085135
0.355775
0.295911
-0.323188
0.0100618
-0.00875808
0.00313059
0.00164966
0.000951999
0.00023733
-0.000552328
-0.00156565
-0.000759072
-3.91819e-05
0.000658204
0.000402367
0.000586926
0.000245322
0.418464
-0.420093
0.00174278
0.41994
-0.42417
0.37938
-0.38045
0.385772
-0.373518
-0.0144309
-0.196629
-0.00616547
0.199444
-0.0012826
-0.202093
-0.00266851
0.193446
-0.00253358
0.00221332
0.0694597
0.00499921
-0.0553262
0.463691
0.00204892
-0.293911
-0.00245621
0.301262
0.363387
0.00571056
-0.406039
0.0107059
-0.288315
-0.514895
-0.00214194
0.44461
-0.0299039
0.167864
0.001245
0.121476
0.076651
0.0447532
0.0287695
0.22732
-0.143986
-0.0129523
0.00612232
0.000259897
-0.000394069
-8.74455e-05
3.89834e-06
-0.000797118
-0.0050106
0.00162711
0.273062
-0.195896
-0.317024
-0.0724247
0.0602359
-0.155662
0.498991
-0.230075
-0.281126
-0.272051
-0.159098
0.374868
0.414487
0.0216404
-0.256585
-0.00932562
0.383944
-0.00822619
-0.286195
0.0027303
0.320845
0.384808
-0.00473123
-0.304292
0.000927246
0.316784
0.0015747
0.00184045
-0.374454
0.00571727
-0.360813
0.0334511
0.0342197
0.00110546
-0.200938
-0.336479
-0.23482
-0.165917
-0.349884
-0.123791
-0.0628542
0.036696
0.0104336
0.474031
-0.0073411
-0.286472
0.00207667
0.304927
0.393142
-0.00729513
-0.303641
0.00110526
0.380911
-0.00258561
-0.309962
0.000307642
0.314337
0.382479
0.000339537
-0.382997
-0.000480018
0.000261321
-0.379973
0.0070498
0.0072037
0.0191625
0.00567364
-0.353988
0.0159987
-0.286078
0.0011172
-0.0525066
-0.0817635
-0.0220997
0.0224452
-0.00911613
-0.437258
-0.00108962
-0.00303353
0.0617868
0.00120984
0.465387
-0.00232429
-0.296423
0.000374114
0.299917
0.390599
-0.000161665
-0.312273
9.43626e-07
0.37742
0.00278782
-0.316775
-0.000925496
0.304927
0.377297
0.00612536
-0.389575
0.00108414
-0.000609065
6.14463e-05
0.000297879
0.000336002
0.000242383
0.000151827
7.94349e-05
-0.00116633
-0.00303948
-0.00071972
-0.000801879
-0.00101551
-0.000118515
0.000426726
0.00066241
0.000834645
0.000199945
0.000314066
-0.000186077
-0.000225162
-0.00108488
-0.000549065
0.42455
-1.73445e-05
-0.424394
0.427031
3.75292e-05
-0.431622
0.431832
-0.426511
0.430661
-0.000633929
-0.437692
0.430809
-0.428175
0.424089
-0.00189702
-0.43232
0.412541
-0.411094
0.411482
-0.412727
0.00185133
-0.4244
0.432998
0.000981976
-0.430871
0.000728296
-0.431205
0.438549
0.000588421
-0.436869
0.000264078
-0.433406
0.439913
-0.433724
0.434046
0.000109973
0.432216
-0.431608
-0.000159199
0.436735
-3.97806e-05
-0.439023
0.433096
-0.431475
-0.000939335
-0.493253
0.30394
-0.000445141
0.487784
-0.00233331
-0.490089
0.306751
0.0012913
0.474668
-0.416745
0.399724
-0.00145501
-0.406588
-0.000476335
0.396638
4.27204e-05
-0.396537
0.000889911
0.406903
0.00148033
-0.399825
0.417776
-0.475964
0.00337122
0.00503423
0.00458964
0.016916
0.0115327
-0.238527
0.246006
-0.242392
0.242339
-7.20853e-05
-0.000715343
-0.000679654
-0.245986
0.238368
-0.0116624
-0.00671953
0.127468
-0.142366
0.00050213
-0.000929095
0.395855
-0.400762
0.400993
-0.396054
0.409323
-0.430941
-0.0117275
-0.00449052
-0.127467
0.00669702
0.142301
-0.0058741
0.00261442
0.00251553
7.42127e-05
0.000130881
0.000191109
0.000215649
0.000174211
-0.433801
7.07146e-05
-0.434504
0.434904
-0.439513
0.434494
0.000122265
0.439443
-0.433044
-0.000102203
-0.493832
0.303406
3.06844e-05
0.492092
-0.302354
-2.44104e-05
-0.276289
0.281427
0.00271691
-0.277513
0.282423
0.0037442
-0.27707
0.287191
0.00708225
-0.275669
0.294371
0.00606667
-0.279468
-0.0095092
-0.00018074
-0.00147354
0.00230433
0.000219362
0.00117838
-0.000252779
0.000300862
-0.00100825
0.00130851
0.00536948
0.286222
-0.30026
-0.000437412
-0.265809
0.302142
0.0294853
0.0120888
-0.000531115
0.0118917
-0.199858
-0.000296985
0.313695
0.0182904
-0.468121
-0.00300341
-0.00467472
0.0245102
0.0168468
-0.0222944
-0.237502
0.363178
0.117919
0.386305
0.143579
0.0817067
0.0196216
0.0596161
-0.336711
0.430337
-0.408622
0.0116857
0.00194989
-0.0185412
-0.00494648
-0.0025704
0.0073758
0.0017057
0.000709509
0.000841893
0.000641396
-0.494502
0.303696
-0.303874
0.494743
3.26971e-05
-0.000756294
-0.00224329
-0.000494623
-0.000642527
-6.46902e-06
0.000159666
0.000820102
0.000600851
-0.433697
3.58969e-05
-0.438902
0.435275
-0.494953
0.303775
0.00131779
0.49767
-0.306375
0.00292199
0.000282488
-0.000800092
-0.00162742
-0.00574202
-0.00420078
0.321187
0.465013
-0.48562
0.039993
0.00701113
0.00326155
0.0117009
0.00561881
0.013625
-0.339233
0.0118644
0.0325095
-0.34551
0.00286315
0.00150843
0.00107008
0.00197105
0.00302018
0.00412014
0.00189851
0.00123201
0.000708895
0.000530689
0.000413703
0.000608918
0.000806696
0.000568804
0.000444506
0.000581503
0.00072556
0.000603756
0.00104801
0.00109367
0.000576108
0.00130242
0.00107274
0.00152176
0.0011308
6.99497e-05
-0.000909175
-0.000316267
0.00213444
0.00399933
0.000336171
-0.0227873
0.00272116
0.000563509
0.000929666
0.00114113
0.00126616
0.00105627
0.00224805
0.0013917
0.00262865
0.00145571
0.419872
-0.428744
0.00217406
0.41273
0.00690766
0.00135385
0.00336707
0.0175841
-0.0677188
0.168426
-0.134333
0.283251
0.0413827
0.193302
-0.155731
0.126053
-0.135807
0.0860979
0.0981186
-0.148309
0.0339281
-0.154645
0.0909785
0.0945211
0.185396
-0.00863289
-0.00235238
-0.0235933
-0.00114425
-0.107431
-0.001675
-0.000750074
0.00065499
0.00088439
0.00167186
0.00098736
0.000654022
0.000850651
0.000646386
0.000162114
0.000589109
0.000343984
0.00242193
0.00117172
0.00051572
-0.466883
0.46533
0.0011289
-0.297608
-0.00083379
0.303545
0.38258
0.00516156
-0.316486
-0.00203017
-0.386672
0.00172689
0.000989037
0.000216524
0.000466403
0.000233191
0.00251817
0.000602361
0.000278668
0.000454232
0.000433597
0.000433622
-0.000537573
-0.00134944
-0.00304853
-0.348005
0.0061449
0.320672
0.0183129
0.332187
-0.293625
-0.320348
0.377981
-0.253335
-0.238547
-0.197669
0.00228352
0.00202575
0.00183296
-0.37657
0.0129513
-0.00156594
-0.0611937
4.36622e-05
0.00515891
-0.000634197
-0.462032
0.000138451
-5.54651e-05
0.062836
0.00223878
-0.0610289
0.000301344
0.00308396
0.00124573
0.00195027
0.000273129
-0.385844
0.000331541
-0.375569
0.00153943
-0.000395028
-0.390341
-0.000374364
0.312321
-0.00277749
-0.00158368
-0.394006
0.00602667
-0.474394
0.0189594
0.0127526
0.0965834
0.0100562
-0.488286
0.0335269
0.00176367
0.00438953
0.0282344
0.185971
0.44034
0.228691
0.336307
-0.0166439
-0.0048488
-0.39876
-0.0109766
-0.0222497
0.0109462
0.226884
0.327201
-0.0173316
-0.00571797
-0.00183915
0.308398
-0.38288
-0.00537307
0.000699135
-0.0170845
-0.031093
0.000989786
0.20951
0.329538
-0.0182738
-0.00608607
-0.00212064
-0.385823
-0.00213056
-0.000429439
-1.38818e-05
0.00199578
0.00477277
0.00150392
-0.0253774
-0.00717028
-5.71762e-05
-0.00233561
-0.00602636
-0.00418808
-0.00706334
-0.00091643
0.191313
0.368963
-0.0689101
0.0596809
0.0266146
0.0329443
0.00912748
-0.00211475
-0.00080339
-0.000182554
9.97967e-05
0.000289238
0.000760656
0.00237537
-0.000125576
-0.000154295
-0.00103928
0.00154562
0.000867498
0.00095981
-0.00186136
-0.0181644
-0.0252597
-0.00766173
0.00267382
0.00270745
-0.489658
0.42944
0.00129307
0.00134799
0.00135023
0.00258558
0.00320807
0.00305379
0.000651319
-0.00831467
0.1221
-0.408808
0.0208031
0.00118177
0.00108074
0.000610964
0.000592336
0.00106787
0.000385893
0.000362832
0.000330097
0.000524382
0.000184059
0.000240816
0.000235014
0.000898631
0.000891293
0.434443
-0.000161198
-0.434131
0.434829
-0.000647759
-0.431007
0.430715
-0.434356
0.440928
-0.000436691
-0.435148
0.433588
-0.432682
0.00165192
0.501036
-0.311386
0.00584299
0.00255588
0.00209158
0.00123726
2.39455e-05
-0.0103648
-0.0176824
-0.03568
-0.0839283
0.00450164
-0.0360485
-0.0119353
-0.00354918
0.00484153
0.00412613
-0.000478697
4.80163e-05
0.000962367
0.000498299
0.440877
-0.434735
0.435397
-0.440721
-0.000147453
-0.434426
0.4395
-1.08395e-05
-0.441124
-0.000639155
-0.432476
0.43541
-0.000250724
-0.437466
0.430507
-0.496317
-0.00158375
-0.00239934
-0.00102152
0.000308481
0.000585179
0.0022109
0.00512365
0.0212181
0.085448
-0.0267651
0.854446
-0.0204582
-0.00447174
-0.0156166
-0.150012
0.0304138
0.0859325
0.00747047
-0.00124118
-0.0838247
-0.00137312
0.00256323
0.00620363
0.000395771
0.000480506
0.00656545
0.00348924
-0.264335
0.217959
-0.00872882
-0.0061084
-0.000442376
0.0446716
-0.0101923
0.0369552
0.0592392
0.0956423
0.190065
0.0470891
-0.122572
0.048274
-0.154371
0.0378575
0.0210078
-0.117136
0.00661752
-0.00238439
0.000271819
-0.000584271
8.0839e-06
0.00220438
-0.00104211
-0.00233428
-0.000336185
-0.00273158
-0.000954782
1.37991e-05
-0.000143878
0.000180258
-6.25712e-05
-0.000152893
-0.000873882
4.12107e-05
0.00122477
0.00247669
0.0101469
0.108035
0.453672
0.0259703
-0.0804322
0.291442
-0.00450659
-0.0621001
-0.0207716
-0.0299177
0.848134
-0.0162355
-0.00470842
0.00534504
0.00214911
0.00542131
-0.0758507
-0.00164197
-0.00176796
-0.0163353
-0.151048
-0.129201
-0.0780089
-0.304745
0.0310729
0.0758953
0.00388535
-0.0042816
-0.00449595
-0.00239695
-0.0936262
-0.00463857
0.0449098
-0.0269828
0.0478033
-0.00270557
-0.0854155
-0.00505172
-0.00279241
-7.91919e-05
0.00521778
0.0191771
0.00255402
0.00336431
0.0178386
0.0174021
0.000861331
-0.00177104
-0.000444558
0.00104697
0.00298738
-0.00136178
-0.00110132
0.0135252
0.322273
0.0141721
-0.000215398
0.00184109
0.000420647
0.000114001
-0.000173349
-0.00150432
0.00115449
0.432812
-0.493926
0.00126065
0.000546755
0.000427515
0.000449887
-0.495881
0.434294
9.55231e-05
-0.434316
0.440316
-0.439408
0.0003474
0.434451
0.000315724
0.000126166
9.40457e-06
-7.82291e-05
0.000544748
0.00103477
0.000197832
8.18015e-05
-0.000213514
-0.000951456
0.00151535
0.435322
-0.429402
0.429154
-6.26523e-05
0.000112378
0.00020493
0.000180334
-1.62096e-05
0.435073
-0.497392
-4.84292e-05
-0.000150076
0.000180939
-0.000686556
-0.00070854
-0.498538
0.434769
-0.000535067
-0.000277334
-0.00091831
0.00108528
0.00013127
0.000166087
-0.0128413
-0.0205013
-0.0833122
-0.0132858
-0.00135358
9.04282e-05
0.000412623
7.25304e-05
0.000166751
0.00128645
-0.00135972
-0.00155325
-0.000345143
-0.000236007
-0.00189745
-0.00118414
-0.00111925
0.000317854
-0.00173588
0.00131958
-0.0019468
-0.00676738
-0.000589001
-0.00239806
-0.0149861
0.0107104
0.0298533
-0.000575334
0.001192
-0.426322
0.00323723
0.0132611
0.0866131
-0.00176832
-0.00251441
-0.0186562
-0.176508
-0.108406
0.0246565
-0.00313557
-0.0024784
-0.00196349
-0.0223705
-0.00287743
0.16306
0.0492648
-0.00835967
0.0346845
0.245762
0.0214031
-0.00361087
-0.0064268
-0.00758631
-0.0113931
-0.282527
-0.251504
0.00185938
0.0254697
0.00945409
0.041018
-0.0775972
0.000478496
0.00450104
-0.0115537
0.000232356
-0.379635
0.00549746
0.00125314
-0.0001326
-0.00152333
9.6691e-05
-0.00134183
-0.455621
0.315897
-0.367236
0.0192935
0.184368
0.312952
-6.40206e-05
-0.000371288
0.00104936
-0.0782604
-0.296954
-0.0206396
-0.00472666
-0.00117943
-0.00251107
-0.0874183
0.000663554
-0.278316
0.0070862
-0.270046
-0.00208498
0.0365672
0.00134282
-0.104621
0.0492989
-0.0099947
0.328708
0.000392671
-0.280151
0.0214441
0.0890277
0.0164147
2.19783e-05
0.00149042
0.0003234
0.00501853
0.317718
-0.49967
0.00165148
-0.16534
-1.08881e-05
0.0218129
0.034239
0.0192801
0.00670764
-0.000225396
-0.00717143
-0.0197435
-0.0347749
0.000564778
0.205844
0.245186
0.243803
0.170767
-0.405331
-0.381502
-0.0188249
0.385885
-0.00823854
-0.471202
0.0793754
0.0130308
-0.0549251
0.0604338
0.0038324
-0.0563442
0.0583493
0.00240284
-0.054027
0.0588569
0.00192345
-0.0535156
0.0577124
0.00013419
-0.0551127
0.0553346
-0.00397013
-0.0600664
0.0501136
-0.0148302
-0.0793034
0.02987
-0.0640401
-0.153632
-0.0736649
-0.23016
-0.282611
-0.276399
-0.235056
-0.250188
-0.260119
-0.248866
-0.268789
-0.255519
-0.253866
-0.264615
-0.252986
-0.270072
-0.268269
-0.250158
-0.33274
-0.155889
-0.149991
0.57515
0.036553
0.323846
-0.15999
0.418943
0.0264956
0.371807
-0.164469
0.396655
0.0220367
0.383394
-0.164975
0.3922
0.0227882
0.403531
-0.159726
0.380677
0.0243119
0.494741
0.0596937
-0.0425769
-0.317026
-0.0029831
-0.240011
0.154546
-0.208905
0.183479
-0.197358
0.191653
-0.19241
0.194943
-0.191731
0.195492
-0.190555
0.198844
-0.184786
0.209641
-0.156539
0.242033
0.00451497
0.302597
0.213241
-0.084698
0.238543
-0.222479
-0.0108762
-0.00523501
-0.122067
0.128847
-0.114742
0.212135
0.0287153