/*--------------------------------*- C++ -*----------------------------------*\
| =========                 |                                                 |
| \\      /  F ield         | OpenFOAM: The Open Source CFD Toolbox           |
|  \\    /   O peration     | Version:  2306                                  |
|   \\  /    A nd           | Website:  www.openfoam.com                      |
|    \\/     M anipulation  |                                                 |
\*---------------------------------------------------------------------------*/
FoamFile
{
    version     2.0;
    format      ascii;
    arch        "LSB;label=32;scalar=64";
    class       volVectorField;
    location    "2.7";
    object      flux;
}
// * * * * * * * * * * * * * * * * * * * * * * * * * * * * * * * * * * * * * //

dimensions      [0 1 -1 1 0 0 0];

internalField   nonuniform List<vector> 
5322
(
(-2.15519e-06 5.50235e-06 -7.32821e-06)
(1.11737e-07 6.42588e-07 -6.79936e-06)
(1.20694e-07 1.48201e-07 -5.90509e-06)
(-1.517e-10 3.26026e-08 -6.38731e-06)
(-8.22291e-09 1.20314e-07 -5.08018e-06)
(-7.41785e-09 1.54555e-07 -3.93687e-06)
(-5.41244e-09 1.46204e-07 -2.9728e-06)
(-3.98092e-09 1.2541e-07 -2.19822e-06)
(-3.14051e-09 1.05519e-07 -1.61304e-06)
(-2.19934e-09 8.35647e-08 -1.21349e-06)
(-1.48667e-09 2.49231e-08 -9.69395e-07)
(1.01923e-08 -1.76173e-07 -8.90553e-07)
(1.49431e-08 -1.83976e-07 -6.45779e-07)
(-2.04609e-07 -1.67251e-07 -9.04738e-07)
(-3.83592e-09 -1.48841e-07 -9.99867e-07)
(3.73791e-07 3.32342e-07 -8.28687e-07)
(-2.9226e-07 4.40561e-07 -9.73754e-07)
(3.54406e-10 -3.41789e-09 -7.57394e-07)
(-2.34602e-07 3.29264e-07 -1.1201e-06)
(1.91458e-07 -4.48088e-07 -1.25134e-06)
(-2.57266e-07 4.74797e-07 -1.46364e-06)
(2.99241e-07 -5.78649e-07 -1.67069e-06)
(-3.1664e-07 6.42456e-07 -1.98699e-06)
(4.31857e-07 -7.95932e-07 -2.30632e-06)
(-4.46411e-07 9.00723e-07 -2.73811e-06)
(5.74229e-07 -1.06158e-06 -3.12705e-06)
(-5.78513e-07 1.19148e-06 -3.67684e-06)
(7.86793e-07 -1.44108e-06 -4.1971e-06)
(-7.8821e-07 1.60204e-06 -4.86387e-06)
(1.00559e-06 -1.8437e-06 -5.43085e-06)
(-9.55505e-07 2.03971e-06 -6.19583e-06)
(1.35201e-06 -2.3352e-06 -6.87361e-06)
(-1.00149e-06 2.62234e-06 -7.6621e-06)
(1.86865e-06 -2.52352e-06 -8.20663e-06)
(1.42546e-07 2.56474e-06 -8.54599e-06)
(2.7026e-06 -1.43579e-06 -7.45963e-06)
(1.91533e-06 2.87845e-06 -8.77882e-06)
(-7.59382e-07 3.51845e-06 -8.69511e-06)
(2.10752e-06 1.777e-06 -8.96176e-06)
(-1.24838e-07 1.98795e-06 -6.54029e-06)
(-2.00009e-06 2.59972e-06 -8.30862e-06)
(2.00602e-06 2.18254e-06 -8.57666e-06)
(-1.21505e-07 2.32858e-06 -6.41338e-06)
(-2.13312e-06 2.42952e-06 -8.58123e-06)
(2.12195e-06 2.31724e-06 -8.495e-06)
(-7.26652e-08 2.37396e-06 -6.52658e-06)
(-2.26697e-06 2.35428e-06 -8.70612e-06)
(1.99473e-06 2.5164e-06 -8.2289e-06)
(-4.74785e-08 2.41568e-06 -6.45733e-06)
(-2.37953e-06 2.23481e-06 -8.56502e-06)
(-2.36128e-06 2.81934e-06 -9.76797e-06)
(-3.39485e-06 1.27047e-06 -6.6578e-06)
(-1.11759e-06 1.48203e-06 -9.28093e-06)
(2.1611e-06 -4.60467e-06 -8.26237e-06)
(-1.42236e-07 -2.26016e-07 -7.40557e-06)
(-3.53441e-06 -2.64657e-06 -7.82325e-06)
(-1.07889e-07 1.45102e-06 -9.65389e-06)
(3.36086e-06 -3.44949e-06 -7.67578e-06)
(-4.06748e-08 -1.67082e-07 -7.42602e-06)
(-3.36023e-06 -2.99726e-06 -7.8062e-06)
(-1.46286e-08 1.47253e-06 -9.75631e-06)
(3.27341e-06 -3.39005e-06 -7.77881e-06)
(-1.73714e-08 -1.48601e-07 -7.42481e-06)
(-3.30015e-06 -2.97533e-06 -7.61527e-06)
(2.86231e-09 1.47908e-06 -9.75619e-06)
(3.22926e-06 -3.51567e-06 -8.05597e-06)
(4.735e-08 -2.02559e-07 -7.39891e-06)
(-3.26836e-06 -2.88579e-06 -7.24279e-06)
(1.68548e-07 1.49977e-06 -9.5674e-06)
(2.69408e-06 -3.91649e-06 -8.59686e-06)
(1.50718e-07 1.19875e-07 -6.15864e-06)
(-2.61012e-06 3.09248e-06 -9.14985e-06)
(2.96355e-06 1.71686e-06 -8.70826e-06)
(-3.05574e-06 2.40626e-06 -8.57917e-06)
(2.94056e-06 1.79034e-06 -8.66178e-06)
(-2.99576e-06 2.27449e-06 -8.62017e-06)
(2.99853e-06 1.89292e-06 -8.61428e-06)
(-2.99945e-06 2.26756e-06 -8.59168e-06)
(3.41645e-06 1.92902e-06 -8.7266e-06)
(-2.49926e-06 2.7014e-06 -8.32369e-06)
(1.18214e-06 2.05495e-07 -8.07459e-06)
(-1.79054e-06 1.03409e-06 -6.49697e-06)
(-1.20268e-06 1.51852e-06 -6.73785e-06)
(1.901e-06 2.4279e-06 -8.69854e-06)
(1.62589e-07 -1.6284e-07 -5.64944e-06)
(-8.69921e-07 -8.92137e-07 -7.72992e-06)
(1.36789e-06 3.18111e-07 -1.11853e-05)
(-3.76895e-06 6.06077e-07 -7.22777e-06)
(-1.21797e-06 1.27664e-06 -7.26092e-06)
(4.18257e-06 1.81457e-07 -6.31865e-06)
(-1.88782e-07 3.42502e-07 -7.82336e-06)
(4.55148e-08 6.17749e-08 -5.72844e-06)
(8.01231e-08 8.72109e-09 -6.03567e-06)
(4.89576e-07 8.54892e-09 -6.02073e-06)
(2.53007e-06 3.04697e-06 -7.70787e-06)
(-5.15805e-07 -1.73857e-06 -7.31042e-06)
(1.99077e-08 5.62264e-08 -6.96636e-06)
(-1.97897e-07 1.75711e-06 -7.40839e-06)
(1.4079e-06 5.34069e-08 -1.13734e-05)
(-3.33021e-06 -8.51275e-08 -7.01741e-06)
(-3.32418e-06 3.09149e-07 -7.09883e-06)
(6.89859e-06 5.5686e-08 -6.40901e-06)
(-1.98733e-07 1.87631e-06 -7.46718e-06)
(1.95676e-06 -2.96399e-06 -7.624e-06)
(3.19352e-06 2.65921e-06 -8.32105e-06)
(5.45049e-08 5.92341e-08 -6.77553e-06)
(3.22387e-08 -5.82832e-08 -7.12787e-06)
(2.62745e-08 -7.52129e-09 -6.44355e-06)
(1.31934e-08 1.5082e-09 -5.13879e-06)
(4.57487e-09 5.65381e-09 -3.99428e-06)
(6.9909e-10 5.31144e-09 -3.01698e-06)
(-8.86098e-10 4.19657e-09 -2.22579e-06)
(-1.9601e-09 3.68973e-09 -1.62362e-06)
(-2.99845e-09 3.62472e-09 -1.21188e-06)
(3.15306e-09 -2.63475e-09 -1.11254e-06)
(-1.61384e-09 1.53533e-09 -1.02095e-06)
(-1.21491e-07 1.2452e-07 -7.26479e-07)
(-1.18146e-07 -4.88399e-08 -7.7999e-07)
(1.44228e-08 -1.91014e-08 -1.08666e-06)
(7.41153e-08 -9.34235e-08 -8.5526e-07)
(3.3366e-09 1.15878e-07 -7.47012e-07)
(1.10418e-07 -6.03823e-08 -8.93442e-07)
(-1.3239e-07 -1.2004e-07 -8.80892e-07)
(-1.01683e-08 -1.66112e-07 -1.23218e-06)
(-3.24232e-08 -1.86844e-07 -9.22419e-07)
(2.05773e-07 -7.36074e-09 -1.20735e-06)
(1.68022e-07 1.38439e-07 -8.72646e-07)
(4.52316e-08 -1.036e-07 -9.11245e-07)
(1.31863e-07 9.94637e-09 -1.1874e-06)
(8.37869e-08 1.13709e-07 -8.70212e-07)
(6.3129e-08 -1.13043e-07 -8.92969e-07)
(1.41659e-07 4.84839e-09 -1.19866e-06)
(6.9827e-08 1.1812e-07 -8.83881e-07)
(7.50746e-08 -1.21164e-07 -8.76668e-07)
(1.44111e-07 -3.92132e-09 -1.20395e-06)
(6.07456e-08 1.10102e-07 -8.95669e-07)
(1.19449e-07 -1.32309e-07 -8.81459e-07)
(1.63925e-07 -1.07264e-08 -1.23575e-06)
(1.85045e-07 -3.24166e-08 -9.24293e-07)
(7.8319e-09 2.03196e-07 -1.20907e-06)
(-1.36978e-07 1.67118e-07 -8.75778e-07)
(6.63311e-09 -1.13304e-07 -7.5004e-07)
(9.3265e-08 7.46134e-08 -8.5611e-07)
(-1.14272e-07 5.78632e-08 -7.69576e-07)
(-1.24118e-07 -1.21873e-07 -7.28142e-07)
(1.95076e-08 1.50216e-08 -1.08754e-06)
(4.91857e-08 -1.17845e-07 -7.80618e-07)
(2.61172e-08 9.21475e-08 -7.76002e-07)
(-9.70344e-08 9.56689e-08 -7.19478e-07)
(-1.06891e-07 -1.05705e-07 -7.24785e-07)
(2.2138e-08 -1.48908e-09 -1.0897e-06)
(2.96501e-08 -9.73486e-08 -7.77104e-07)
(3.64038e-08 9.81116e-08 -7.74223e-07)
(-1.05643e-07 1.07263e-07 -7.20587e-07)
(-9.96026e-08 -9.53467e-08 -7.25375e-07)
(2.23651e-08 -2.78715e-10 -1.08901e-06)
(1.86278e-08 -9.01316e-08 -7.77879e-07)
(5.89296e-08 1.15776e-07 -7.68824e-07)
(-1.13299e-07 -6.22877e-09 -7.49141e-07)
(1.48827e-07 -4.00962e-09 -1.0004e-06)
(-3.30874e-07 3.7404e-07 -8.28e-07)
(-4.39583e-07 -2.91677e-07 -9.7572e-07)
(4.20307e-07 3.52103e-07 -1.23994e-06)
(-5.36749e-07 -4.19581e-07 -1.34779e-06)
(-2.57746e-08 1.69725e-08 -8.02391e-07)
(-3.3055e-07 -2.32475e-07 -1.12167e-06)
(5.38525e-09 1.89106e-10 -7.58143e-07)
(3.05956e-07 8.41123e-09 -9.89249e-07)
(-7.17905e-08 -3.67769e-08 -6.52867e-07)
(3.39882e-07 1.024e-07 -8.7603e-07)
(1.67784e-07 -2.04545e-07 -9.06433e-07)
(2.51128e-07 2.04006e-07 -8.43548e-07)
(-3.9704e-07 -3.58172e-07 -9.14253e-07)
(1.50396e-07 1.0983e-09 -1.02602e-06)
(-3.42539e-07 3.66478e-07 -8.74166e-07)
(2.50295e-07 -3.95378e-07 -1.17345e-06)
(3.25559e-07 4.11566e-07 -1.16411e-06)
(-4.4073e-07 -4.70383e-07 -1.2561e-06)
(2.48562e-08 2.27707e-09 -9.86883e-07)
(-3.74569e-07 4.64084e-07 -1.25475e-06)
(3.81254e-07 -5.44807e-07 -1.47498e-06)
(4.74096e-07 5.65111e-07 -1.47656e-06)
(-5.80947e-07 -6.5251e-07 -1.69249e-06)
(1.90901e-08 2.87834e-09 -1.31137e-06)
(-4.86963e-07 6.3925e-07 -1.69521e-06)
(5.44601e-07 -7.52507e-07 -1.9963e-06)
(6.65479e-07 7.7791e-07 -1.99767e-06)
(-7.95296e-07 -9.0427e-07 -2.32259e-06)
(2.95154e-08 3.21556e-09 -1.79829e-06)
(-6.64048e-07 8.85784e-07 -2.32575e-06)
(7.59182e-07 -1.03754e-06 -2.73422e-06)
(9.22716e-07 1.07155e-06 -2.73583e-06)
(-1.0911e-06 -1.23803e-06 -3.16541e-06)
(4.0776e-08 4.37754e-09 -2.46311e-06)
(-9.11643e-07 1.21367e-06 -3.17092e-06)
(1.0254e-06 -1.40943e-06 -3.69417e-06)
(1.25079e-06 1.45568e-06 -3.69843e-06)
(-1.48018e-06 -1.65751e-06 -4.22377e-06)
(5.31229e-08 6.6943e-09 -3.3128e-06)
(-1.23958e-06 1.62476e-06 -4.2341e-06)
(1.3348e-06 -1.87203e-06 -4.87681e-06)
(1.64538e-06 1.93353e-06 -4.88685e-06)
(-1.97003e-06 -2.15365e-06 -5.4869e-06)
(6.90344e-08 9.56288e-09 -4.34222e-06)
(-1.64762e-06 2.1059e-06 -5.50397e-06)
(1.66646e-06 -2.41159e-06 -6.25352e-06)
(2.09043e-06 2.4881e-06 -6.2733e-06)
(-2.5306e-06 -2.66728e-06 -6.92491e-06)
(9.3642e-08 1.32427e-08 -5.5082e-06)
(-2.08917e-06 2.593e-06 -6.95303e-06)
(1.95428e-06 -2.97206e-06 -7.65417e-06)
(2.43533e-06 2.99724e-06 -7.67439e-06)
(-4.58452e-07 -1.7429e-06 -7.39466e-06)
(1.34676e-06 -1.13227e-08 -1.13745e-05)
(-3.29851e-06 -1.81371e-07 -7.01601e-06)
(-3.36391e-06 8.83478e-08 -6.99381e-06)
(6.93155e-06 -5.81153e-08 -6.42948e-06)
(-2.87435e-07 -2.77092e-09 -8.83456e-06)
(-3.08129e-07 1.70658e-08 -8.81353e-06)
(9.25427e-08 2.62987e-08 -6.03608e-06)
(5.31274e-07 1.77276e-09 -6.02717e-06)
(2.51782e-06 3.05082e-06 -7.69094e-06)
(-3.87241e-07 -1.73577e-06 -7.37061e-06)
(4.54632e-08 9.49859e-09 -6.90001e-06)
(-4.55018e-07 2.08241e-06 -7.48869e-06)
(1.29002e-06 -3.13531e-07 -1.13589e-05)
(-3.35527e-06 -1.28031e-07 -7.06028e-06)
(-3.30782e-06 1.09925e-07 -6.98725e-06)
(6.88968e-06 -1.15001e-07 -6.44453e-06)
(-2.53973e-07 1.74709e-06 -7.3648e-06)
(1.95599e-06 -3.00468e-06 -7.66222e-06)
(1.70245e-08 1.86243e-08 -6.96169e-06)
(5.19981e-08 1.3423e-08 -6.97448e-06)
(3.13636e-08 3.75464e-08 -6.43172e-06)
(1.72887e-08 2.09488e-08 -5.14022e-06)
(7.02896e-09 9.04935e-09 -3.99889e-06)
(1.90093e-09 2.9637e-09 -3.02054e-06)
(-3.54921e-10 1.66547e-10 -2.22796e-06)
(-1.73789e-09 -1.57e-09 -1.6248e-06)
(-2.7186e-09 -2.86274e-09 -1.21246e-06)
(3.12794e-09 3.09566e-09 -1.113e-06)
(-1.52525e-09 -1.60001e-09 -1.0217e-06)
(9.57363e-08 -9.97888e-08 -7.24436e-07)
(-1.06619e-07 -1.06647e-07 -7.22967e-07)
(1.0658e-07 -1.06819e-07 -7.22441e-07)
(-9.58354e-08 -9.98819e-08 -7.24071e-07)
(3.23923e-10 2.28517e-08 -1.08891e-06)
(9.57109e-08 3.34304e-08 -7.74097e-07)
(-8.97238e-08 2.00648e-08 -7.77727e-07)
(-2.53307e-10 -1.32109e-07 -7.68334e-07)
(-1.09766e-07 6.55281e-08 -8.93063e-07)
(1.36641e-10 -1.36536e-07 -1.28574e-06)
(-9.54093e-08 3.33942e-08 -7.74262e-07)
(1.25947e-10 2.2897e-08 -1.08919e-06)
(8.98389e-08 2.02236e-08 -7.77907e-07)
(3.61055e-09 -1.34923e-07 -1.27813e-06)
(1.02364e-07 4.51286e-08 -9.09496e-07)
(-8.48119e-09 1.28331e-07 -1.18457e-06)
(-1.11e-07 8.14193e-08 -8.70191e-07)
(2.6846e-10 -1.32094e-07 -7.687e-07)
(1.09732e-07 6.57064e-08 -8.93151e-07)
(-6.00948e-11 1.39351e-07 -1.18478e-06)
(5.36672e-11 1.94892e-07 -6.37066e-07)
(1.98649e-07 2.08707e-07 -8.70472e-07)
(-3.57024e-07 -3.61197e-07 -8.74689e-07)
(3.56994e-07 -3.60555e-07 -8.73717e-07)
(-3.52462e-07 -3.87556e-07 -9.14685e-07)
(4.06e-07 3.08918e-07 -1.16377e-06)
(-4.64415e-07 -4.23522e-07 -1.25655e-06)
(5.57536e-07 4.49555e-07 -1.47657e-06)
(-6.43722e-07 -5.543e-07 -1.69286e-06)
(7.6722e-07 6.30963e-07 -1.99832e-06)
(-8.91889e-07 -7.5685e-07 -2.32277e-06)
(1.05676e-06 8.75306e-07 -2.7372e-06)
(-1.22113e-06 -1.03723e-06 -3.16567e-06)
(1.43575e-06 1.18704e-06 -3.7009e-06)
(-1.63467e-06 -1.40691e-06 -4.22393e-06)
(1.90768e-06 1.56292e-06 -4.89161e-06)
(-2.12386e-06 -1.8755e-06 -5.48555e-06)
(2.45732e-06 1.99247e-06 -6.28275e-06)
(-2.63225e-06 -2.42117e-06 -6.91772e-06)
(3.01436e-06 2.43318e-06 -7.72715e-06)
(-1.72592e-06 -4.60021e-07 -7.30485e-06)
(4.21897e-08 1.43222e-06 -1.1378e-05)
(1.74831e-06 -2.81487e-07 -7.44025e-06)
(5.02261e-08 2.77032e-08 -6.96505e-06)
(-2.93587e-06 2.10685e-06 -7.63747e-06)
(2.56511e-06 -2.22856e-06 -6.9719e-06)
(1.50374e-08 1.00313e-07 -5.51224e-06)
(-2.3829e-06 1.80631e-06 -6.2533e-06)
(2.08e-06 -1.77242e-06 -5.51268e-06)
(9.41444e-09 7.22762e-08 -4.34536e-06)
(-1.84991e-06 1.44821e-06 -4.88055e-06)
(1.60369e-06 -1.33804e-06 -4.23755e-06)
(5.86599e-09 5.46934e-08 -3.3148e-06)
(-1.39283e-06 1.1111e-06 -3.69772e-06)
(1.19754e-06 -9.85066e-07 -3.17213e-06)
(3.56589e-09 4.14719e-08 -2.46425e-06)
(-1.02531e-06 8.21688e-07 -2.73687e-06)
(8.73914e-07 -7.17033e-07 -2.32598e-06)
(2.39133e-09 2.97386e-08 -1.79891e-06)
(-7.43681e-07 5.89676e-07 -1.99862e-06)
(6.3075e-07 -5.2411e-07 -1.69465e-06)
(2.05719e-09 1.90923e-08 -1.31166e-06)
(-5.38588e-07 4.1323e-07 -1.47735e-06)
(4.5764e-07 -4.00109e-07 -1.25363e-06)
(1.72639e-09 2.45951e-08 -9.86794e-07)
(-3.90316e-07 2.71042e-07 -1.17518e-06)
(4.32841e-10 -2.5604e-08 -9.19131e-07)
(3.90831e-07 2.70928e-07 -1.17421e-06)
(-4.56934e-07 -4.0035e-07 -1.25469e-06)
(-1.64001e-09 2.46164e-08 -9.86927e-07)
(-4.04844e-07 3.10364e-07 -1.16482e-06)
(3.52416e-07 -3.8558e-07 -9.14775e-07)
(-7.09427e-10 1.50364e-07 -1.02632e-06)
(-2.00145e-07 2.42606e-07 -8.42266e-07)
(-1.29802e-08 1.78354e-07 -6.44531e-07)
(2.03376e-07 1.69184e-07 -9.09228e-07)
(-3.69784e-07 -3.39438e-07 -8.2982e-07)
(3.90114e-07 2.45539e-07 -1.17773e-06)
(-4.5806e-07 -3.82668e-07 -1.25639e-06)
(5.30767e-07 3.95164e-07 -1.47442e-06)
(-6.22617e-07 -4.99068e-07 -1.69932e-06)
(7.33668e-07 5.69454e-07 -1.99933e-06)
(-8.57075e-07 -6.83177e-07 -2.32886e-06)
(1.01367e-06 7.9573e-07 -2.74379e-06)
(-1.17071e-06 -9.40644e-07 -3.17334e-06)
(1.38253e-06 1.0792e-06 -3.71401e-06)
(-1.56444e-06 -1.28548e-06 -4.2347e-06)
(1.84962e-06 1.419e-06 -4.92071e-06)
(-2.02243e-06 -1.71753e-06 -5.48445e-06)
(2.40523e-06 1.80163e-06 -6.34695e-06)
(-2.47026e-06 -2.15077e-06 -6.86092e-06)
(2.96453e-06 2.13645e-06 -7.76769e-06)
(-1.70504e-06 -2.67151e-07 -7.35257e-06)
(-4.09406e-07 1.06532e-06 -1.12449e-05)
(7.21343e-07 -9.06954e-07 -7.80706e-06)
(8.21622e-08 7.32368e-08 -6.74615e-06)
(-2.75918e-06 2.94926e-06 -8.32003e-06)
(2.2426e-06 -3.14134e-06 -7.53437e-06)
(2.06831e-08 1.33725e-07 -5.35394e-06)
(-2.17595e-06 2.60284e-06 -6.77898e-06)
(1.87235e-06 -2.4217e-06 -5.92247e-06)
(-5.72156e-09 8.70022e-08 -4.21668e-06)
(-1.63789e-06 2.05581e-06 -5.26435e-06)
(1.43268e-06 -1.78786e-06 -4.53121e-06)
(-1.06417e-08 5.92374e-08 -3.20977e-06)
(-1.22394e-06 1.5547e-06 -3.97476e-06)
(1.0626e-06 -1.30906e-06 -3.38467e-06)
(-9.55848e-09 4.28873e-08 -2.38371e-06)
(-9.01719e-07 1.14913e-06 -2.93858e-06)
(7.76518e-07 -9.52207e-07 -2.48101e-06)
(-9.63758e-09 2.99813e-08 -1.73962e-06)
(-6.55003e-07 8.35828e-07 -2.14232e-06)
(5.66535e-07 -6.93725e-07 -1.80782e-06)
(-1.0698e-08 2.00024e-08 -1.26888e-06)
(-4.75049e-07 6.0363e-07 -1.57992e-06)
(4.19471e-07 -5.26715e-07 -1.34806e-06)
(-1.42391e-08 2.67869e-08 -9.54736e-07)
(-3.44702e-07 4.16249e-07 -1.23972e-06)
(2.89691e-07 -4.33813e-07 -9.7605e-07)
(4.57773e-09 1.49079e-07 -1.00097e-06)
(-1.0054e-07 3.39169e-07 -8.76569e-07)
(1.69157e-07 2.98895e-07 -9.13891e-07)
(2.79297e-07 -1.49719e-07 -8.08613e-07)
(-5.16048e-10 3.07529e-07 -9.91954e-07)
(3.22737e-08 -7.14436e-08 -6.51483e-07)
(-5.13393e-08 4.95935e-08 -7.4429e-07)
(1.49986e-07 3.57985e-07 -8.75574e-07)
(-4.6326e-07 -3.11767e-07 -8.10194e-07)
(3.84778e-07 3.16206e-07 -1.20148e-06)
(-5.35872e-07 -3.34552e-07 -1.30437e-06)
(-3.60979e-07 5.37144e-07 -1.25978e-06)
(-4.48381e-07 -4.73901e-07 -1.25464e-06)
(2.66369e-08 -4.08725e-09 -9.8248e-07)
(2.66042e-07 -4.73704e-07 -1.16333e-06)
(2.95572e-07 4.05071e-07 -1.18247e-06)
(-3.87959e-07 -3.79348e-07 -8.42967e-07)
(1.44887e-07 1.00785e-08 -1.02851e-06)
(-3.4583e-07 3.97175e-07 -9.34065e-07)
(-2.91107e-08 1.69817e-08 -9.23469e-07)
(1.51718e-08 4.91981e-09 -9.0376e-07)
(-1.34333e-07 -1.08058e-07 -1.23658e-06)
(1.11276e-08 1.02894e-08 -9.74156e-07)
(-5.53412e-09 -8.58147e-09 -9.24629e-07)
(-1.40348e-07 5.72993e-09 -1.27458e-06)
(7.74329e-09 -2.48137e-09 -9.82222e-07)
(-2.7694e-08 -1.00032e-09 -9.20669e-07)
(-3.53256e-07 3.65003e-07 -9.04844e-07)
(-3.83187e-07 -3.65567e-07 -8.79737e-07)
(3.03343e-07 4.00319e-07 -1.17533e-06)
(-4.3526e-07 -4.64695e-07 -1.25396e-06)
(-7.26187e-09 4.8457e-10 -1.13287e-06)
(4.58557e-07 5.51405e-07 -1.47836e-06)
(-5.76259e-07 -6.40937e-07 -1.69484e-06)
(6.53802e-07 7.62202e-07 -1.99955e-06)
(-7.90452e-07 -8.87671e-07 -2.32596e-06)
(-2.72666e-08 2.15907e-09 -2.07763e-06)
(9.12386e-07 1.05244e-06 -2.73909e-06)
(-1.08626e-06 -1.21476e-06 -3.17006e-06)
(1.23863e-06 1.43243e-06 -3.7036e-06)
(-1.47526e-06 -1.62383e-06 -4.22946e-06)
(8.73493e-09 4.22336e-09 -3.73774e-06)
(1.62694e-06 1.9052e-06 -4.89396e-06)
(-1.95619e-06 -2.10237e-06 -5.49099e-06)
(2.0537e-06 2.45004e-06 -6.27762e-06)
(-2.477e-06 -2.59245e-06 -6.9308e-06)
(5.12648e-07 -4.24295e-09 -6.02972e-06)
(9.13129e-08 4.57925e-09 -6.03832e-06)
(2.94477e-08 7.30608e-09 -4.83096e-06)
(3.44412e-08 2.09595e-08 -4.83534e-06)
(-8.64419e-09 1.09417e-08 -3.75748e-06)
(1.2632e-08 1.06876e-08 -3.74819e-06)
(1.68612e-06 1.92465e-06 -4.91749e-06)
(-2.00795e-06 -2.10126e-06 -5.49598e-06)
(8.17337e-08 9.88768e-09 -4.34493e-06)
(-1.62896e-06 2.49474e-06 -5.55232e-06)
(1.5449e-06 -2.79384e-06 -6.23623e-06)
(2.14193e-06 2.49759e-06 -6.32365e-06)
(-2.48652e-06 -2.56787e-06 -6.89765e-06)
(1.25475e-07 2.45247e-08 -5.50438e-06)
(-2.18602e-06 3.132e-06 -7.05081e-06)
(1.72682e-06 -3.32481e-06 -7.565e-06)
(3.46486e-06 2.13331e-06 -8.5179e-06)
(-3.13389e-07 -1.59243e-06 -7.15132e-06)
(1.51081e-07 -2.8783e-06 -1.13717e-05)
(-3.61523e-06 -2.1792e-07 -7.21315e-06)
(-3.35648e-06 -8.06452e-09 -6.8505e-06)
(6.57676e-06 -1.03437e-06 -6.6465e-06)
(-4.40255e-07 -2.76653e-07 -8.60321e-06)
(7.23781e-08 4.81201e-08 -5.71936e-06)
(1.294e-07 1.56856e-06 -5.1793e-06)
(-1.6423e-06 1.94725e-06 -7.21974e-06)
(3.3126e-07 1.30972e-07 -4.531e-06)
(1.01282e-06 -2.70365e-06 -6.22058e-06)
(-1.05195e-06 1.85274e-06 -5.59744e-06)
(7.21449e-08 -3.8377e-10 -3.51372e-06)
(8.44923e-07 -1.75272e-06 -4.88398e-06)
(-7.5563e-07 1.43282e-06 -4.23655e-06)
(4.02145e-09 -2.05361e-08 -2.66236e-06)
(6.17235e-07 -1.23866e-06 -3.71296e-06)
(-5.76318e-07 1.07951e-06 -3.161e-06)
(-6.09035e-09 -1.45231e-08 -1.97691e-06)
(4.29544e-07 -8.79696e-07 -2.73536e-06)
(-4.13121e-07 7.87426e-07 -2.29729e-06)
(-1.39775e-08 -1.64759e-08 -1.44219e-06)
(3.26336e-07 -6.38894e-07 -1.9971e-06)
(-2.9139e-07 5.93711e-07 -1.66963e-06)
(-2.06394e-08 -1.70839e-08 -1.05348e-06)
(2.54362e-07 -4.46649e-07 -1.45971e-06)
(-1.75321e-07 4.53934e-07 -1.24273e-06)
(-2.51246e-08 -3.08987e-08 -8.0064e-07)
(2.42066e-07 -3.12559e-07 -1.12481e-06)
(8.73681e-08 8.73672e-08 -8.19271e-07)
(6.27969e-08 1.38344e-07 -7.88286e-07)
(-1.3425e-08 -1.9588e-07 -1.03402e-06)
(-6.78354e-09 -6.08074e-09 -9.46426e-07)
(1.13565e-07 3.38608e-07 -1.11653e-06)
(-4.83084e-08 -3.47974e-07 -1.33995e-06)
(5.71374e-07 3.9864e-07 -1.49938e-06)
(-7.03752e-07 -4.54095e-07 -1.7508e-06)
(8.12134e-07 5.39946e-07 -2.04306e-06)
(-9.64758e-07 -6.26617e-07 -2.39535e-06)
(-6.23811e-07 1.01774e-06 -2.32396e-06)
(-8.12262e-07 -8.92881e-07 -2.33142e-06)
(2.99495e-08 -3.48813e-09 -1.79472e-06)
(5.33312e-07 -8.74869e-07 -2.00318e-06)
(6.71564e-07 7.62707e-07 -2.00208e-06)
(-5.91742e-07 -6.47137e-07 -1.69971e-06)
(1.96736e-08 -4.52587e-09 -1.30858e-06)
(-4.56536e-07 7.35433e-07 -1.69157e-06)
(-1.26822e-08 2.40607e-09 -1.51715e-06)
(-6.70236e-09 -8.81519e-09 -1.4447e-06)
(-4.39544e-10 -5.1841e-09 -1.07563e-06)
(-7.25255e-09 -2.88343e-08 -9.477e-07)
(-8.6417e-09 -3.54916e-08 -1.1219e-06)
(2.75974e-08 2.15161e-08 -1.06825e-06)
(2.10189e-08 3.30799e-08 -1.02259e-06)
(1.89685e-08 1.07706e-08 -1.20303e-06)
(-7.01893e-08 1.55883e-08 -1.20876e-06)
(-1.8149e-08 2.56717e-08 -9.68117e-07)
(1.61765e-07 1.52492e-08 -8.94696e-07)
(2.43913e-07 -1.99827e-08 -6.70194e-07)
(2.05661e-07 3.21859e-07 -1.10696e-06)
(7.10809e-08 1.02813e-07 -6.18531e-07)
(3.29954e-07 2.04934e-08 -8.61517e-07)
(1.25005e-07 7.91672e-08 -9.6006e-07)
(8.66571e-08 6.81425e-09 -1.04128e-06)
(5.54051e-08 -1.35782e-08 -1.36067e-06)
(-3.06357e-08 -9.0038e-09 -1.62083e-06)
(-9.79688e-08 1.36235e-08 -1.60875e-06)
(-1.32548e-07 1.79922e-08 -2.19898e-06)
(-6.25835e-08 -1.65288e-08 -2.23206e-06)
(5.2497e-08 -2.83642e-08 -1.85822e-06)
(-8.92513e-08 -4.9843e-07 -1.82793e-06)
(7.63629e-09 -1.59522e-08 -1.73056e-06)
(1.46193e-07 5.68167e-07 -2.10254e-06)
(-1.31371e-07 -6.93586e-07 -2.49536e-06)
(1.13025e-06 7.40292e-07 -2.81584e-06)
(-1.32443e-06 -8.57294e-07 -3.26086e-06)
(1.54046e-06 1.01212e-06 -3.81893e-06)
(-1.80959e-06 -1.14903e-06 -4.35202e-06)
(-1.18468e-06 1.88821e-06 -4.24858e-06)
(-1.51944e-06 -1.62864e-06 -4.23959e-06)
(5.73113e-08 1.34742e-09 -3.31153e-06)
(9.83032e-07 -1.6306e-06 -3.70849e-06)
(1.27845e-06 1.4388e-06 -3.71473e-06)
(-1.11765e-06 -1.22007e-06 -3.1773e-06)
(4.2234e-08 -1.98991e-09 -2.45989e-06)
(-8.60908e-07 1.39791e-06 -3.17399e-06)
(-1.6434e-08 7.96043e-09 -2.82688e-06)
(-5.65271e-09 -9.02762e-09 -2.68753e-06)
(-8.60709e-09 -1.0088e-08 -1.98034e-06)
(-1.2463e-08 4.47686e-09 -1.75166e-06)
(-3.10811e-08 -9.96095e-08 -2.05956e-06)
(5.17889e-10 -4.49161e-08 -2.02189e-06)
(-6.71108e-09 -3.17815e-08 -1.93272e-06)
(-2.17239e-08 -6.83362e-08 -1.5013e-06)
(4.32054e-09 -1.89625e-08 -1.43543e-06)
(2.33625e-09 -1.37678e-08 -1.3756e-06)
(1.22153e-07 4.22641e-07 -1.5235e-06)
(4.46693e-09 -9.64441e-09 -1.26075e-06)
(-1.05992e-08 -1.37772e-08 -1.27534e-06)
(-2.47606e-09 3.39096e-08 -1.39316e-06)
(3.04509e-09 -7.58999e-08 -1.21811e-06)
(1.80487e-09 -2.17336e-08 -9.73913e-07)
(-9.27429e-09 1.77724e-07 -8.9239e-07)
(2.08526e-08 3.35322e-07 -8.57949e-07)
(-2.39661e-07 6.1137e-07 -8.18301e-07)
(-7.19109e-09 4.97775e-08 -8.85359e-07)
(-1.36675e-09 -6.83351e-09 -7.56037e-07)
(-7.34078e-10 1.62388e-08 -1.05877e-06)
(-3.19047e-09 -1.4097e-09 -1.04994e-06)
(4.65461e-07 -4.21145e-07 -1.25627e-06)
(1.4262e-09 -9.91934e-09 -1.12994e-06)
(-5.56116e-07 4.5256e-07 -1.47736e-06)
(5.39846e-07 4.1268e-07 -1.47661e-06)
(-6.28963e-07 -5.23665e-07 -1.69539e-06)
(-1.23875e-09 1.9161e-08 -1.31208e-06)
(6.4649e-07 -5.52828e-07 -1.69326e-06)
(2.73396e-09 -1.6876e-08 -1.51389e-06)
(-7.65115e-07 6.34367e-07 -1.99888e-06)
(7.4661e-07 5.89393e-07 -1.99886e-06)
(-8.70336e-07 -7.15666e-07 -2.32576e-06)
(3.45991e-11 2.99248e-08 -1.79985e-06)
(8.97272e-07 -7.57931e-07 -2.32532e-06)
(4.26687e-09 -2.48005e-08 -2.07385e-06)
(-1.05322e-06 8.77172e-07 -2.73751e-06)
(1.03127e-06 8.23016e-07 -2.73967e-06)
(-1.19091e-06 -9.82943e-07 -3.16955e-06)
(1.81666e-09 4.18619e-08 -2.46621e-06)
(1.23094e-06 -1.04323e-06 -3.1723e-06)
(6.49254e-09 -1.93752e-08 -2.81419e-06)
(-1.43031e-06 1.18368e-06 -3.70024e-06)
(1.40383e-06 1.11696e-06 -3.70582e-06)
(-1.59216e-06 -1.33651e-06 -4.22883e-06)
(4.79723e-09 5.5581e-08 -3.31829e-06)
(1.65159e-06 -1.42276e-06 -4.23851e-06)
(8.52593e-09 2.63143e-08 -3.73431e-06)
(-1.89973e-06 1.5411e-06 -4.88464e-06)
(1.86794e-06 1.4673e-06 -4.90062e-06)
(-2.06148e-06 -1.77887e-06 -5.4874e-06)
(1.02656e-08 7.40808e-08 -4.35008e-06)
(2.14716e-06 -1.90264e-06 -5.51595e-06)
(3.76203e-09 1.80104e-07 -4.8204e-06)
(-2.44329e-06 1.91185e-06 -6.25175e-06)
(2.40494e-06 1.86072e-06 -6.29487e-06)
(-2.54236e-06 -2.27003e-06 -6.91576e-06)
(1.6476e-08 1.03182e-07 -5.51287e-06)
(2.64136e-06 -2.4234e-06 -6.97204e-06)
(-2.0932e-08 6.09446e-07 -6.01147e-06)
(-2.98696e-06 2.23146e-06 -7.63699e-06)
(2.94508e-06 2.23121e-06 -7.7088e-06)
(-1.73351e-06 -3.49335e-07 -7.38601e-06)
(-3.57294e-09 2.92585e-08 -6.95279e-06)
(1.71945e-06 -4.18805e-07 -7.38909e-06)
(-1.17715e-07 6.89313e-06 -6.47897e-06)
(-2.7165e-07 -3.31428e-06 -7.03136e-06)
(-2.28239e-07 -3.41609e-06 -6.77592e-06)
(-3.2183e-07 5.13733e-06 -6.17706e-06)
(-3.35394e-06 1.35186e-06 -8.53187e-06)
(7.29655e-07 4.94005e-07 -5.70957e-06)
(5.18399e-07 -4.17219e-06 -7.4428e-06)
(-2.64469e-07 -9.52421e-07 -5.73765e-06)
(-5.34147e-07 -5.7432e-07 -5.49248e-06)
(-1.95154e-07 1.86706e-06 -6.77094e-06)
(-2.91262e-06 -1.95621e-06 -6.8057e-06)
(6.53045e-07 -3.69486e-08 -6.04677e-06)
(-1.07498e-06 7.56425e-08 -6.45193e-06)
(-1.51324e-06 -3.36052e-07 -6.49976e-06)
(-3.44497e-07 -3.85126e-07 -5.86348e-06)
(-4.56868e-07 -7.34189e-08 -5.26985e-06)
(-5.76295e-07 1.04053e-07 -5.16358e-06)
(-3.12177e-07 5.87146e-08 -3.97427e-06)
(-1.64555e-07 -1.86861e-08 -4.05973e-06)
(7.75225e-08 -6.47727e-08 -3.43923e-06)
(-9.3234e-08 -1.9845e-08 -3.04088e-06)
(-1.91543e-07 3.0298e-08 -2.98547e-06)
(-1.80961e-07 8.53773e-09 -2.96368e-06)
(-1.25426e-07 4.5067e-09 -2.18807e-06)
(-9.91336e-08 1.81935e-09 -1.60539e-06)
(-8.05496e-08 -1.31657e-09 -1.20849e-06)
(-1.94699e-08 -4.34784e-09 -9.64797e-07)
(1.91274e-07 -1.60913e-08 -8.84795e-07)
(2.11492e-07 -8.17347e-09 -6.48066e-07)
(2.10064e-07 2.1057e-07 -9.00018e-07)
(2.41821e-07 -2.10585e-07 -7.96116e-07)
(3.10282e-07 2.26216e-09 -8.62314e-07)
(2.95805e-07 1.46248e-09 -8.67469e-07)
(2.23156e-07 -2.14175e-07 -8.49425e-07)
(2.247e-07 2.11011e-07 -8.77577e-07)
(1.5021e-07 -4.88464e-10 -1.02884e-06)
(-1.32697e-07 8.57227e-10 -7.66964e-07)
(4.23353e-08 -8.81001e-10 -9.43073e-07)
(-1.53272e-08 -1.58763e-08 -9.17037e-07)
(-1.0691e-08 -1.00636e-08 -9.24576e-07)
(3.84424e-08 3.82839e-08 -9.52406e-07)
(-1.15649e-07 3.32408e-09 -7.48246e-07)
(-2.64832e-10 4.4026e-08 -9.40004e-07)
(-1.33313e-10 -1.54982e-08 -9.26787e-07)
(-3.07861e-10 -1.90796e-08 -9.24915e-07)
(1.43249e-10 -2.64386e-10 -1.02935e-06)
(-7.34739e-08 7.16151e-08 -7.0942e-07)
(-8.41666e-08 -8.377e-08 -7.14904e-07)
(-8.3575e-08 8.4494e-08 -7.1372e-07)
(-7.4213e-08 -7.09436e-08 -7.11267e-07)
(7.38915e-08 -7.19707e-08 -7.0911e-07)
(-6.1642e-08 -6.08745e-08 -7.0545e-07)
(2.55956e-09 2.55389e-09 -1.09591e-06)
(8.42713e-08 8.39128e-08 -7.12641e-07)
(-7.1583e-08 7.48394e-08 -7.10627e-07)
(-7.17298e-08 -7.43511e-08 -7.1083e-07)
(2.57669e-09 -2.10272e-09 -1.09619e-06)
(8.38255e-08 -8.41695e-08 -7.1376e-07)
(1.09131e-10 1.30814e-10 -1.03645e-06)
(2.4769e-10 2.89184e-10 -1.12202e-06)
(2.82595e-10 4.26194e-09 -1.11718e-06)
(2.58566e-10 8.05666e-09 -9.82862e-07)
(-2.79403e-09 6.75263e-09 -9.80125e-07)
(2.73707e-09 -3.35751e-08 -9.15295e-07)
(-1.26179e-09 -8.82944e-09 -1.13321e-06)
(-5.70674e-10 -1.59815e-08 -1.52217e-06)
(8.48666e-10 -2.06891e-08 -2.08661e-06)
(3.29712e-09 -2.00313e-08 -2.82952e-06)
(7.89173e-09 -4.54832e-09 -3.74878e-06)
(9.33519e-09 -1.65078e-09 -3.56425e-06)
(-2.98597e-09 1.1845e-07 -3.17117e-06)
(-4.28552e-08 -2.39302e-07 -3.72081e-06)
(3.27504e-08 -9.69449e-08 -3.65378e-06)
(-3.03614e-08 -9.06147e-09 -3.49116e-06)
(2.32329e-07 1.1041e-06 -3.87459e-06)
(-3.26808e-07 -1.20875e-06 -4.46506e-06)
(2.07356e-06 1.36038e-06 -5.09619e-06)
(-2.41676e-06 -1.52503e-06 -5.5976e-06)
(2.75788e-06 1.77082e-06 -6.71089e-06)
(-3.31948e-08 -7.06155e-08 -5.48155e-06)
(-7.90432e-07 -1.63541e-06 -5.62242e-06)
(-1.43715e-07 -4.14169e-08 -4.46711e-06)
(2.1923e-07 1.53911e-06 -5.13729e-06)
(7.75216e-10 -3.33175e-08 -4.24493e-06)
(4.34892e-08 -1.34247e-07 -4.55146e-06)
(8.01532e-08 2.27758e-08 -4.62795e-06)
(-2.95646e-07 1.63588e-08 -3.93401e-06)
(-5.25944e-07 3.10817e-08 -5.08957e-06)
(-1.00921e-06 3.61639e-08 -6.40752e-06)
(-2.32693e-06 -3.11173e-08 -7.97652e-06)
(-2.39271e-06 -3.86142e-07 -7.93797e-06)
(-5.54809e-06 1.32573e-06 -7.94926e-06)
(-2.32101e-06 -6.26985e-07 -6.88808e-06)
(-1.98996e-06 -2.27948e-06 -6.39198e-06)
(-4.19753e-08 -3.40514e-07 -6.69268e-06)
(-7.73006e-07 -3.96596e-07 -7.34775e-06)
(6.93796e-07 -5.17944e-06 -6.15366e-06)
(-4.80186e-06 -1.45907e-06 -6.98293e-06)
(-2.91776e-06 1.88914e-07 -9.9897e-06)
(-1.40796e-06 -2.16922e-06 -9.02011e-06)
(2.11287e-06 1.57342e-06 -8.89135e-06)
(1.68909e-07 7.73702e-08 -9.18216e-06)
(9.34872e-08 7.32386e-08 -5.88353e-06)
(-2.17089e-06 1.90207e-06 -7.4684e-06)
(2.28751e-06 1.59236e-06 -7.83979e-06)
(1.4789e-08 2.07464e-07 -9.39599e-06)
(-2.81578e-07 -1.83118e-07 -6.05819e-06)
(-2.37158e-06 2.09584e-06 -7.73264e-06)
(2.29607e-06 1.88522e-06 -7.87414e-06)
(4.57352e-09 2.20639e-07 -9.44089e-06)
(-3.11374e-07 -2.18622e-07 -6.08403e-06)
(-2.3151e-06 1.90616e-06 -7.63628e-06)
(2.28948e-06 2.14603e-06 -7.97379e-06)
(1.90266e-08 2.05931e-07 -9.4202e-06)
(-5.01634e-07 -4.91925e-07 -6.22623e-06)
(-2.20962e-06 1.58823e-06 -7.56949e-06)
(1.63404e-06 2.17722e-06 -8.49229e-06)
(-1.38405e-06 -7.73429e-07 -1.17527e-05)
(1.19087e-06 1.235e-06 -9.26745e-06)
(9.07541e-07 -1.07356e-06 -9.062e-06)
(2.58919e-06 1.14754e-06 -1.14763e-05)
(-1.21735e-06 -4.50575e-06 -1.12371e-05)
(-6.815e-07 -2.43637e-06 -8.95578e-06)
(3.81964e-07 3.99174e-07 -6.58181e-06)
(1.48432e-06 -1.11409e-06 -9.28196e-06)
(-4.57693e-06 2.18367e-06 -8.26917e-06)
(-2.28617e-07 -1.36657e-07 -7.40225e-06)
(-2.66228e-06 -3.54722e-06 -7.80744e-06)
(2.53035e-06 2.00955e-06 -8.24597e-06)
(2.4149e-06 -3.8373e-08 -6.46087e-06)
(2.23292e-06 -2.37466e-06 -8.55096e-06)
(2.81904e-06 -2.36063e-06 -9.77294e-06)
(1.26882e-06 -3.39747e-06 -6.65622e-06)
(2.18285e-07 1.19862e-06 -8.07996e-06)
(1.03489e-06 -1.79488e-06 -6.50069e-06)
(1.52028e-06 -1.19448e-06 -6.74368e-06)
(2.41348e-06 1.88879e-06 -8.70142e-06)
(-8.8657e-07 -3.42833e-06 -7.54169e-06)
(2.15605e-07 -4.86114e-07 -5.73603e-06)
(1.47966e-06 2.21725e-06 -7.08258e-06)
(-1.00818e-06 -2.35451e-06 -6.18366e-06)
(1.26291e-08 -1.599e-07 -4.6567e-06)
(1.0256e-06 1.85586e-06 -5.52186e-06)
(-8.07136e-07 -1.6646e-06 -4.85445e-06)
(-2.27528e-09 -8.13118e-08 -3.60072e-06)
(7.63904e-07 1.42931e-06 -4.2143e-06)
(-5.92669e-07 -1.21029e-06 -3.6887e-06)
(1.33534e-09 -6.29141e-08 -2.71491e-06)
(5.69616e-07 1.06352e-06 -3.14474e-06)
(-4.31044e-07 -8.84605e-07 -2.73364e-06)
(1.64488e-09 -4.90786e-08 -1.9979e-06)
(4.17519e-07 7.79318e-07 -2.30443e-06)
(-3.15655e-07 -6.42828e-07 -1.99364e-06)
(-1.14469e-09 -3.02558e-08 -1.45757e-06)
(2.95461e-07 5.71103e-07 -1.67664e-06)
(-2.47564e-07 -4.70082e-07 -1.46446e-06)
(-1.5949e-08 1.39543e-09 -1.0609e-06)
(1.89991e-07 4.4102e-07 -1.25426e-06)
(-2.29445e-07 -3.29279e-07 -1.12149e-06)