/*--------------------------------*- C++ -*----------------------------------*\
| =========                 |                                                 |
| \\      /  F ield         | OpenFOAM: The Open Source CFD Toolbox           |
|  \\    /   O peration     | Version:  2306                                  |
|   \\  /    A nd           | Website:  www.openfoam.com                      |
|    \\/     M anipulation  |                                                 |
\*---------------------------------------------------------------------------*/
FoamFile
{
    version     2.0;
    format      ascii;
    arch        "LSB;label=32;scalar=64";
    class       volScalarField;
    location    "2.7";
    object      gradTy;
}
// * * * * * * * * * * * * * * * * * * * * * * * * * * * * * * * * * * * * * //

dimensions      [0 -1 0 1 0 0 0];

internalField   nonuniform List<scalar> 
5322
(
0.0470286
0.00549221
0.00126668
0.000278655
0.00102832
0.00132098
0.00124961
0.00107188
0.00090187
0.000714229
0.000213018
-0.00150575
-0.00157245
-0.0014295
-0.00127214
0.00284053
0.00376548
-2.92128e-05
0.00281422
-0.00382981
0.0040581
-0.00494572
0.00549108
-0.00680284
0.00769849
-0.00907329
0.0101836
-0.0123169
0.0136927
-0.0157581
0.0174334
-0.019959
0.0224131
-0.0215685
0.0219209
-0.0122717
0.0246021
0.0300722
0.015188
0.016991
0.0222198
0.0186542
0.0199024
0.0207651
0.0198055
0.0202903
0.0201221
0.0215077
0.0206468
0.0191009
0.0240969
0.0108587
0.0126669
-0.0393561
-0.00193176
-0.0226203
0.0124019
-0.0294828
-0.00142805
-0.0256176
0.0125857
-0.0289747
-0.00127009
-0.0254302
0.0126418
-0.0300484
-0.00173128
-0.0246648
0.0128186
-0.0334743
0.00102457
0.0264315
0.014674
0.0205663
0.0153021
0.0194401
0.0161788
0.0193808
0.0164874
0.0230889
0.00175637
0.0088384
0.0129788
0.0207513
-0.00139179
-0.0076251
0.00271889
0.00518015
0.0109115
0.00155091
0.00292737
0.00052799
7.45392e-05
7.30677e-05
0.0260425
-0.0148596
0.000480567
0.015018
0.00045647
-0.000727585
0.0026423
0.000475949
0.0160368
-0.0253332
0.0227283
0.000506274
-0.000498147
-6.42845e-05
1.28906e-05
4.83232e-05
4.53969e-05
3.58681e-05
3.15362e-05
3.09805e-05
-2.25192e-05
1.31225e-05
0.00106427
-0.000417435
-0.00016326
-0.000798491
0.000990406
-0.000516088
-0.00102598
-0.00141976
-0.00159696
-6.29123e-05
0.00118324
-0.000885472
8.50117e-05
0.000971875
-0.000966177
4.14392e-05
0.00100957
-0.00103559
-3.35155e-05
0.000941039
-0.00113085
-9.1679e-05
-0.000277065
0.00173672
0.00142836
-0.000968414
0.000637722
0.000494557
-0.00104165
0.00012839
-0.00100722
0.000787585
0.000817683
-0.000903462
-1.27272e-05
-0.000832039
0.000838561
0.00091678
-0.000814929
-2.38218e-06
-0.000770356
0.000989535
-5.32374e-05
-3.42703e-05
0.00319692
-0.00249297
0.00300943
-0.00358616
0.000145064
-0.00198696
1.61629e-06
7.18909e-05
-0.000314333
0.000875214
-0.00174825
0.00174364
-0.0030613
9.38722e-06
0.00313229
-0.0033793
0.00351766
-0.00402037
1.94621e-05
0.00396653
-0.00465647
0.00483001
-0.00557701
2.46012e-05
0.00546367
-0.00643168
0.0066488
-0.0077288
2.74834e-05
0.00757081
-0.00886788
0.00915854
-0.0105815
3.74149e-05
0.0103732
-0.0120464
0.0124417
-0.0141667
5.72162e-05
0.0138869
-0.0160003
0.0165259
-0.0184073
8.1734e-05
0.0179992
-0.0206119
0.0212658
-0.0227973
0.000113185
0.0221624
-0.0254023
0.0256174
-0.0148966
-9.67749e-05
-0.00155018
0.000755109
-0.000496712
-2.36831e-05
0.000145861
0.000224775
1.51518e-05
0.0260754
-0.0148356
8.11845e-05
0.0177984
-0.00267975
-0.00109429
0.000939528
-0.000982911
0.0149324
-0.025681
0.000159182
0.000114727
0.000320909
0.00017905
7.73448e-05
2.53308e-05
1.42348e-06
-1.34188e-05
-2.44679e-05
2.64587e-05
-1.36753e-05
-0.000852896
-0.000911511
-0.000912986
-0.000853691
0.000195313
0.00028573
0.000171494
-0.00112914
0.000560069
-0.00116697
0.000285421
0.000195701
0.000172852
-0.00115319
0.000385715
0.00109685
0.000695891
-0.00112901
0.000561593
0.00119104
0.00166574
0.00178382
-0.00308715
-0.00308167
-0.00331244
0.00264032
-0.00361984
0.00384235
-0.00473761
0.00539284
-0.0064688
0.00748125
-0.00886524
0.0101456
-0.0120249
0.0133583
-0.0160299
0.0170296
-0.0206938
0.0207964
-0.00393181
0.0122412
-0.00240588
0.000236779
0.0180073
-0.0190475
0.000857374
0.0154385
-0.0151488
0.000617745
0.0123778
-0.0114362
0.000467465
0.00949662
-0.00841937
0.00035446
0.00702297
-0.00612849
0.000254176
0.00503997
-0.00447957
0.000163182
0.00353188
-0.00341974
0.000210215
0.0023166
-0.000218838
0.00231562
-0.00342179
0.000210397
0.00265269
-0.00329556
0.00128516
0.00207356
0.0015244
0.00144602
-0.00290118
0.00209862
-0.00327067
0.00337747
-0.00426554
0.00486713
-0.00583912
0.00680111
-0.00803969
0.00922395
-0.010987
0.0121282
-0.0146797
0.0153985
-0.0183826
0.0182603
-0.00228335
0.00910527
-0.00775175
0.000625956
0.0252074
-0.0268491
0.00114295
0.0222465
-0.0206983
0.000743608
0.017571
-0.0152808
0.000506303
0.0132881
-0.0111885
0.000366558
0.00982162
-0.00813852
0.00025625
0.00714383
-0.00592927
0.00017096
0.00515923
-0.00450184
0.000228948
0.00355769
-0.0037078
0.00127418
0.00289888
0.00255466
-0.00127965
0.00262845
-0.000610629
0.000423876
0.0030597
-0.00266467
0.00270261
-0.00285942
0.00459098
-0.00405044
-3.49338e-05
-0.00404876
0.00346215
-0.00324229
8.61406e-05
0.00339466
0.000145142
4.20496e-05
-0.000923576
8.79435e-05
-7.33459e-05
4.89737e-05
-2.12083e-05
-8.54978e-06
0.00311968
-0.0031245
0.00342153
-0.00397175
4.14163e-06
0.00471286
-0.0054781
0.00651454
-0.00758693
1.84536e-05
0.00899524
-0.0103825
0.012243
-0.0138789
3.60971e-05
0.0162837
-0.017969
0.0209405
-0.0221577
-3.62645e-05
3.91389e-05
6.24452e-05
0.000179141
9.3519e-05
9.13472e-05
0.01645
-0.0179595
8.45101e-05
0.0213226
-0.023879
0.0213469
-0.0219476
0.000209613
0.0267693
-0.0284171
0.0182334
-0.0136105
-0.0246009
-0.00186256
-6.89275e-05
-0.0088408
-0.00236455
0.000411283
0.0134065
0.0166432
0.00111942
-0.0231081
0.0158353
-3.28009e-06
-0.0149805
0.0122463
-0.000175523
-0.0105868
0.00922654
-0.000124129
-0.00751877
0.00673013
-0.000140819
-0.00546063
0.00507445
-0.000146016
-0.00381751
0.00387978
-0.000264092
-0.00267144
0.000746728
0.00118243
-0.00167419
-5.19721e-05
0.00289408
-0.00297414
0.00340718
-0.00388115
0.00461493
-0.0053557
0.00869863
-0.00763146
-2.98131e-05
-0.00747751
0.00651886
-0.00553109
-3.86826e-05
0.00628575
2.05647e-05
-7.53435e-05
-4.43085e-05
-0.000246447
-0.000303347
0.000183898
0.000282734
9.20567e-05
0.000133233
0.000219416
0.000130335
-0.000170792
0.00275093
0.000878741
0.000175157
0.000676643
5.82415e-05
-0.000116053
-7.69556e-05
0.00011644
0.00015378
-0.000141272
-0.000242429
-0.00426009
-0.000136344
0.00485613
-0.00592809
0.00632728
-0.0073273
0.00865057
-0.00982077
0.0161385
-0.01392
1.15164e-05
-0.0139367
0.0122974
-0.0104279
-1.70078e-05
0.011948
6.80379e-05
-7.71591e-05
-8.62222e-05
3.82637e-05
-0.000851363
-0.000383899
-0.000271636
-0.00058407
-0.000162072
-0.000117673
0.00361232
-8.24309e-05
-0.000117754
0.000289825
-0.000648717
-0.000185757
0.00151901
0.002866
0.00522538
0.000425449
-5.8406e-05
0.000138794
-1.20488e-05
-0.00359953
-8.47807e-05
0.00386803
0.00352718
-0.00447577
0.000163769
-0.00472503
-0.000144239
0.00542194
0.00503755
-0.0061168
0.000255767
-0.00647804
-0.00021197
0.00749719
0.00703432
-0.00840122
0.000357794
-0.00891646
-0.0001656
0.0101169
0.00954664
-0.0114232
0.000475052
-0.0121603
0.000224909
0.0131718
0.012541
-0.015204
0.000633169
-0.0162619
0.00153935
0.0163406
0.0159036
-0.019402
0.0008819
-0.0207128
0.00520894
0.0190723
0.0190701
-0.00298577
0.000250072
-0.00357953
0.0589156
-0.0283272
-0.0291974
0.0439088
0.0115543
0.00422226
-0.0356597
-0.00814035
-0.00490872
0.0159577
-0.0167198
-0.0003158
0.000646517
-0.00287224
-0.00329168
-0.000627512
0.000889342
0.000501835
-0.00015971
-0.000553613
-0.000169615
0.000258957
7.29721e-05
3.85188e-05
1.555e-05
-1.12528e-05
-3.7161e-05
-0.000137532
-6.98587e-05
0.00179975
-0.00179987
1.93347e-05
1.24998e-05
-0.00183056
0.00180351
-4.17491e-06
7.32673e-06
-7.52992e-06
-0.000135695
-8.60137e-05
0.000327213
2.84109e-05
0.00037629
-0.000132463
-0.000163073
-2.25971e-06
0.000612095
-0.000715983
0.000722171
-0.000606355
-0.000615134
-0.000520295
2.18282e-05
0.000717203
0.000639653
-0.000635479
-1.7972e-05
-0.000719398
1.11807e-06
2.47165e-06
3.64269e-05
6.88603e-05
5.77148e-05
-0.000286967
-7.54653e-05
-0.000136594
-0.00017683
-0.000171208
-3.88745e-05
-1.41092e-05
0.00101239
-0.00204532
-0.000828589
-7.74485e-05
0.00943676
-0.0103312
0.0116272
-0.0130345
0.0151352
-0.000603552
-0.0139779
-0.000353991
0.0131548
-0.000284765
-0.00114741
0.000194665
0.000139819
0.000265655
0.000309093
-0.00026596
-0.00330036
0.011331
-0.00535885
-0.0194827
-0.00291037
-0.00338971
-0.0442687
-0.0124707
0.00161465
-0.0185403
0.013448
0.000661284
0.000625971
0.016257
0.01361
0.0017732
-0.00156511
0.0179131
0.016113
0.0018858
-0.00186856
0.016292
0.0183421
0.0017601
-0.00420449
0.0135746
0.0186087
-0.00661051
0.0105556
-0.00917576
0.00980803
-0.0385107
-0.0208237
0.00341174
-0.00952218
0.0186638
-0.00116801
-0.0303181
0.0171756
-0.000327974
-0.0202963
-0.0201763
-0.0290382
0.0102446
-0.0153409
-0.0102092
0.0161435
-0.0293019
-0.00415482
0.0189509
-0.0201241
-0.00136666
0.0158621
-0.0142273
-0.000694973
0.0122164
-0.0103444
-0.000537728
0.00908996
-0.00756072
-0.000419476
0.00666084
-0.00549426
-0.000258597
0.00488123
-0.00401779
1.19267e-05
0.0037694
-0.00281435
0.000670348
0.00259294
-0.00133442
0.00254109
0.00289463
-0.00374415
0.00354804
-0.00454678
0.00023312
0.00209199
-0.00290343
0.00127221
0.00143836
0.00153654
0.00207271
0.00178004
0.00128405
0.00249918
0.00150853
-0.000220637
-0.000715759
-0.000891404
-0.000852417
-0.00112309
-0.00163076
-0.0012404
-0.000560072
-0.000281337
0.00671711
-0.00787215
-0.000224248
-0.000174913
-0.000337072
3.37683e-05
-0.0102711
0.00901118
2.94542e-05
0.00771327
-0.00904776
3.07538e-05
0.0105857
-0.0122814
6.20327e-05
0.0142031
-0.0162889
0.000112082
0.0184593
-0.02091
0.000148912
0.0227029
0.000173464
0.000381648
2.06484e-05
-2.05409e-05
-7.5661e-05
1.16446e-05
3.24173e-05
2.62449e-05
1.67775e-05
8.319e-06
3.42378e-06
2.32907e-06
1.65799e-05
4.86946e-05
-0.00175366
2.85177e-05
9.2047e-05
-8.58224e-06
-1.06542e-05
-1.56632e-05
-2.23748e-05
-3.69769e-05
-7.13679e-05
-0.000138794
-0.000187075
0.000760579
-0.000222426
-0.000585848
-0.000794945
0.0155411
-0.0166245
0.019846
2.32919e-05
-0.00275955
0.0023031
0.00722274
3.0142e-05
-0.00647815
0.00607153
0.00620052
1.11012e-05
-0.00690444
0.0064542
0.00556836
-6.33612e-06
-0.0087048
0.00826214
0.00778528
-0.000165017
0.0106937
-0.0112497
0.010971
-0.0117884
-0.00110144
-0.00601806
0.00857042
-0.000754681
-0.00823756
-0.000189943
-5.88033e-05
0.0286615
-9.27087e-05
-0.0288409
0.0178738
-0.000635956
-0.0184874
0.0185316
-0.000411336
-0.0194216
0.0290403
-0.000281446
-0.0290539
0.0259859
-0.0258903
0.0257233
-0.026358
0.000109507
-0.0287449
0.0284173
-3.47681e-05
-0.0185252
-0.000703808
0.0186825
-0.015937
0.000105108
0.0282861
0.0102178
0.0278386
0.0103026
-0.0124672
0.0183609
0.00226661
-0.0139149
0.0140016
0.000848302
-0.0115164
0.01068
0.00057386
-0.00887396
0.00813773
0.000422118
-0.00666451
0.00595684
0.000318128
-0.00490592
0.0043771
0.000145581
-0.00363669
0.00304508
-0.000153709
-0.00290477
0.00179387
-0.00112887
-0.00307203
-0.000888282
-0.0027588
0.00181554
0.00017075
9.11434e-05
0.00113628
0.0002826
-0.0017536
-0.00143438
-0.000385948
-0.00111368
-0.000709404
-0.000549403
-0.00123435
-0.000601835
-0.000640685
-0.00122557
-0.00179838
-0.00189006
-0.0012792
0.00328371
0.000209629
-0.00212024
-0.000207596
0.00321117
0.00378065
6.25109e-05
-0.00322455
-0.000164417
0.0041193
0.00605187
9.74681e-06
-0.00720901
0.000109321
0.00825433
-4.64626e-05
-0.00991703
0.000167408
0.0112252
-7.1281e-05
-0.0134187
0.000140922
0.0149561
-9.10926e-05
-0.0177151
0.000192577
0.0193686
-0.000174244
-0.0227924
1.61734e-05
0.0240478
-0.000501703
-0.0285718
-0.00080871
0.000527212
-0.0173581
0.0283015
0.000165516
0.0164215
0.000328111
-0.0142096
0.0233091
-3.95462e-05
0.0128091
0.000289427
-0.0111822
0.01832
-3.46611e-05
0.00983359
0.000236773
-0.0084781
0.0139483
-1.96255e-05
0.00734373
0.00020821
-0.00630044
0.0103474
-1.24105e-05
0.00539201
0.00015111
-0.00459918
0.00755411
-6.74205e-06
0.00390104
0.000109567
-0.00341399
0.00552417
-2.05214e-05
0.00289519
6.77981e-05
-0.00271153
0.00409812
-0.000139176
0.00268265
-0.000417776
0.000616832
-0.00290579
-0.00254061
0.00132337
-0.00262097
-0.000687492
-0.000378328
-0.00524436
-0.00287792
-0.00252469
-0.00172928
-0.00128297
0.0029403
0.00339721
0.00027241
-0.00200893
-0.000228314
0.00460317
0.000110771
-0.00520233
0.000134862
-0.000256907
-0.000114364
1.71213e-05
-0.00277915
-5.82635e-05
0.00115758
-0.000157615
-0.000189048
-0.000308468
0.0011373
-0.000371094
0.000153824
0.000134912
4.11481e-06
1.04238e-05
9.46503e-06
8.28486e-06
6.93998e-06
6.76432e-06
-1.51564e-05
-7.01719e-06
0.00471872
-0.0054611
2.86124e-05
-1.30062e-05
-4.13862e-05
1.82016e-06
-0.00349928
5.24751e-07
0.00400123
-0.00477746
4.37734e-06
0.00555335
-0.00657172
1.36539e-05
1.08299e-05
-2.88975e-06
1.15313e-05
1.37373e-05
4.09491e-05
5.37633e-05
3.51737e-05
2.12322e-05
1.21813e-05
9.41314e-06
2.26434e-05
2.03637e-05
1.99937e-06
0.00395168
-0.00457114
0.00413489
-0.004842
0.00567242
-0.0066459
8.48568e-05
-0.00275073
8.95121e-05
0.00257579
0.000116887
-0.00215669
5.30627e-05
0.00165743
-0.000137333
-7.04148e-05
0.000596833
-2.05572e-05
-0.000895905
0.00603004
5.88507e-05
-0.00447469
-0.000239941
0.00530867
0.00694491
0.000230829
-0.0064218
-0.000319746
0.00756846
0.0091604
0.000369664
-0.00877268
-0.000417726
0.0099941
0.0122305
0.000495809
-0.0117319
-0.000532951
0.0126677
-0.0151747
-0.000652749
0.0150224
-0.0192789
4.62965e-05
-0.000644195
-0.000134729
-2.95881e-05
2.27887e-05
3.23379e-05
3.00469e-05
3.01054e-05
3.27223e-05
-2.30163e-05
1.40074e-05
0.000855005
0.000905914
0.000915839
-0.000251922
0.00118048
-6.47314e-05
-7.09473e-05
0.00121434
-0.000220017
0.00113574
-0.000361326
4.57027e-05
-9.63368e-05
9.60582e-05
-2.39913e-05
3.1039e-05
-1.2426e-05
-0.00336256
0.000117213
9.07543e-05
2.5543e-05
3.91694e-06
9.4734e-07
-0.000635318
0.000633706
2.20071e-05
-0.000529305
0.000833524
-0.000186181
6.3045e-05
5.48711e-05
-8.85652e-07
-0.000133002
0.00116805
-0.00331015
0.000210351
-0.0022348
-0.000226723
0.00312985
0.00386123
1.77585e-05
-0.00327787
-0.000153544
0.00495894
0.000105396
-0.00459677
-0.000236378
0.00561517
0.00679843
0.000237748
-0.00648937
-0.000328065
0.00755224
-0.00884402
-0.000426042
0.00997645
0.000338211
0.000275785
0.000209311
0.000143396
7.46173e-05
6.4435e-05
-3.48654e-05
2.3432e-06
2.63696e-05
5.45294e-06
-1.63778e-05
-8.1049e-05
-5.96642e-05
-1.97332e-05
-2.05026e-05
-6.28828e-05
-3.89543e-05
-0.000132279
-0.000110916
-0.000181435
-0.000200133
-0.00111504
-0.00156773
-0.00246535
-0.00267162
-0.00479118
-0.00409547
-0.0023696
-0.00879685
-0.0265316
0.00176103
-0.0420292
-0.0312593
-0.0234154
-0.0156197
-0.0138251
0.00527148
-0.0122557
-0.000808943
0.00306869
0.000290995
-0.000240386
0.0149429
-0.0174234
0.0202051
0.000184395
-0.00247321
0.00378268
0.00839075
0.000313998
-0.00582509
0.00785414
0.00784598
0.00033179
-0.00623011
0.00809722
0.00736659
0.000245096
-0.00834258
0.0092046
-0.00042186
0.000328796
0.000743503
0.0042306
-0.0179841
-0.0259261
0.000935981
0.0223213
0.000516164
0.000253244
0.0141739
0.000146062
-0.0232146
0.0261777
2.37818e-06
-0.0275931
0.0162746
-0.016861
0.0148031
-0.00247125
-0.0180427
0.000668894
-0.0214357
0.0294293
-0.0257682
0.0243617
-5.62244e-05
-0.0244021
3.87828e-05
0.0241749
-7.21168e-05
-0.0242806
1.50359e-05
0.0243909
-8.27444e-05
-0.0244824
0.0262177
-0.03007
0.00200585
-0.0229243
0.0315706
0.00161679
0.000895305
-0.00983121
0.010521
-0.0108827
2.95558e-05
-0.00827504
0.007615
0.000544925
-0.00946038
0.00682106
-0.00796141
0.000605143
0.0152452
-0.00859741
0.00513995
0.00113352
-0.0096861
0.00764964
-0.000163958
-0.000148219
-6.77908e-06
0.000263986
0.000137324
5.30697e-05
1.34652e-05
-3.46833e-06
-1.47939e-05
-2.44486e-05
2.63516e-05
-1.22398e-05
0.000525454
0.000610686
1.57587e-06
-0.00014128
-8.72505e-05
0.00110516
0.000386736
-0.00096724
0.000493586
0.000637819
-0.00101921
2.54749e-05
-0.00113746
-9.01967e-05
-0.000281645
-0.000940838
0.00143476
0.00175777
9.08595e-05
0.000328749
-7.91166e-05
4.56059e-05
0.000794197
-0.000853507
-9.01877e-06
-0.000908554
0.000908826
0.000856158
-0.000790927
-3.70121e-06
-0.00104709
-1.03582e-08
0.00104787
8.41536e-07
2.30184e-06
-2.36237e-05
4.2276e-05
5.56854e-05
0.000356212
0.00522107
0.00286289
0.00149097
-0.000222994
-0.000706482
-0.000905749
-0.00114694
-0.00158096
-0.00241669
-0.00408683
-0.0042039
-0.008045
-0.00879784
-0.018785
-0.0308934
-0.0278535
-0.0280168
0.0116933
-0.016981
-0.00799238
-0.00864196
-0.0254564
-0.031525
-0.0283533
-0.0283622
-0.0283522
-0.0281996
-0.0321745
0.0118502
-0.0020016
-0.00732297
0.0358579
-0.0103373
-0.0233274
-0.0219217
-0.00627864
-0.00768053
-0.017528
-0.0181928
-0.00292161
-0.00499868
2.12707e-06
0.000670872
0.000726089
0.000594333
0.000446646
0.00034014
0.000188003
0.000178258
-2.01712e-05
0.000109592
-0.00040288
-0.00066202
-0.000879825
-0.00118474
-0.00173779
-0.00298978
0.000496432
0.000318543
0.000223731
0.000505866
0.000561261
0.000474203
0.000467265
0.000330897
0.000417457
0.000257611
0.00336793
0.00512202
-0.00595714
0.00709331
-0.00813461
0.000258178
0.00484642
-0.00427871
0.000174646
-1.73237e-05
-6.71633e-05
-4.82853e-05
-0.00327986
6.3797e-05
-0.00116064
0.000700102
-0.000260227
-5.94574e-05
-8.10989e-05
0.00012691
-0.00104392
0.000814884
-5.41871e-06
-2.3229e-06
-2.32624e-06
1.17142e-06
0.000524817
-1.71715e-05
3.03063e-06
2.80444e-06
8.61847e-07
-0.000327517
2.38033e-06
0.000136119
8.4581e-05
0.000111767
-8.94153e-05
7.77752e-05
-8.60795e-07
8.4855e-06
-0.000326652
0.0010436
0.00102108
-0.000633317
-0.000123955
-0.000501371
0.000973735
8.62354e-05
2.3801e-05
2.56343e-06
1.04875e-06
-1.99051e-05
-1.6812e-05
-1.57923e-05
-4.24699e-05
-6.59361e-05
-7.37108e-05
2.58945e-05
-0.000129423
-0.000109202
-0.000175405
-0.000193009
-0.0058465
0.00676233
0.00976551
-0.0111298
0.0132144
-0.0150593
0.000479803
0.00915112
-0.00802267
0.000358357
2.04749e-05
-8.57157e-05
8.68419e-05
-7.75147e-05
0.000177296
-0.000183763
-0.000185905
-0.000184977
-0.000178203
-6.76331e-05
0.000147188
0.000312787
0.000377578
0.00016914
0.00416771
0.000127936
0.000146145
7.00737e-05
3.09023e-05
6.90395e-06
-1.47792e-05
-9.32163e-06
-6.02873e-06
-1.34004e-05
1.79385e-05
6.28189e-06
3.85418e-08
4.37675e-05
2.04233e-05
2.01333e-05
1.15753e-05
-2.35302e-06
2.21044e-05
1.98816e-05
4.77342e-06
9.5279e-06
1.64186e-05
2.64787e-05
2.05146e-05
8.39633e-05
4.29681e-05
6.82088e-05
0.000165852
8.07778e-05
0.000168401
0.000334726
0.000264215
0.000974322
-0.00241267
-0.00296784
-0.00050707
0.000377285
0.000518106
0.000336932
-0.00717109
-0.000155822
-8.64224e-05
-0.000103655
-0.000737528
-0.00025844
0.0163202
-0.000222857
-0.0204969
-0.000158454
-0.000890789
-0.019049
-0.000868828
-0.00108156
-0.0125611
-0.00621742
-0.0102639
-0.024782
0.00254922
0.00622916
0.000387648
-0.000337382
-0.000289254
-0.000527414
0.000102737
-0.0146318
0.0196251
0.000129712
-0.00438131
0.00199086
0.00668711
4.625e-05
-0.0083607
0.00533364
0.00539171
-1.67355e-05
-0.00862504
0.00569476
0.00477845
-7.10429e-05
-0.00793302
0.00190524
-0.0115529
0.00553874
0.00860591
-0.0108899
0.00322313
0.00140092
-0.000648712
-0.000113838
-2.02015e-05
3.20423e-05
3.69754e-05
3.12614e-05
2.94105e-05
2.77337e-05
1.78078e-05
2.73443e-05
9.41834e-05
0.00537379
-0.00629958
9.67199e-05
0.00740691
-0.00867766
0.00778692
-0.00908729
0.0105441
-0.0122067
0.000124618
-0.00517244
0.000130628
0.00496988
9.84099e-05
-0.00375925
0.000117565
0.00364446
1.45302e-05
9.47991e-05
0.00118415
-7.20494e-05
-0.0016263
0.0111946
0.000257732
-0.00836335
-0.000417073
0.00963857
0.0124862
0.000496179
-0.01155
-0.000526408
0.0154376
0.000785885
-0.0150646
-0.000725097
0.0150041
0.0190919
0.000755603
-0.0230431
-0.000188589
-0.0191617
-0.0227913
0.000894301
0.0185496
0.0154092
-0.0188237
-0.000123803
-0.000639159
0.00052443
0.000434196
0.000367397
0.000290157
0.000211617
0.000134568
5.88898e-05
9.86489e-05
2.6085e-05
4.49981e-07
3.46375e-05
5.69084e-07
0.0101258
-0.0117826
0.000169865
0.013551
-0.0156685
0.0140035
-0.0159581
0.018263
-0.0197815
-0.000604263
-0.00881154
-4.97231e-05
0.00892579
4.77442e-05
-0.00704858
9.78948e-05
0.00665875
-2.5993e-05
0.000249136
0.00240938
5.58404e-05
-0.00252571
0.0193544
0.000430331
-0.0138816
-0.000721527
0.0157249
0.0189769
0.000744168
-0.0236823
-8.70918e-05
-0.0168969
-0.0303228
0.000166496
0.0234242
-0.00185799
0.00998237
-0.000158484
0.00687849
0.00549044
0.00286747
0.00182289
0.0128205
-0.00777287
-0.000472444
0.00110842
0.000603742
0.000454325
0.000374928
0.000295187
0.000207417
9.53658e-05
7.5941e-05
0.00210745
-0.00147672
-0.00240033
-0.000560158
0.000459126
-0.00123994
0.00397747
-0.00173895
-0.00210206
-0.00205977
-0.00123283
0.00298996
0.00332944
0.000203515
-0.00225845
-0.000213583
0.00374574
2.90753e-05
-0.00321765
-0.000153311
0.00415599
0.00498663
0.000125158
-0.00463989
-0.000243013
0.00558284
-0.000403169
-0.000311761
-0.00568903
-0.000167551
-0.0040516
0.000770585
0.00077762
0.000219229
-0.00159479
-0.00264422
-0.00177983
-0.00130841
-0.0027938
-0.000924401
-0.000484372
0.000277246
6.70398e-05
0.00459787
8.76041e-06
-0.00322266
-0.000161857
0.00393178
0.00509285
9.8752e-05
-0.00461402
-0.000233938
0.00676075
0.000237087
-0.00643361
-0.000324206
0.00757749
0.00922137
0.000352577
-0.0107112
-0.000577126
-0.00044709
-0.00788884
0.00104579
0.0010517
0.000924107
-0.000191653
-0.00397839
-1.25197e-05
-0.00251881
0.0002272
-0.000616848
-0.000827994
4.43765e-05
0.000707864
-0.000343982
-0.0048918
0.000411685
3.8933e-05
0.000859733
-5.57683e-05
0.00822817
0.00016125
-0.00617748
-0.000326293
0.00720401
0.00942146
0.000358097
-0.00873092
-0.000409002
0.0121195
0.000528627
-0.0116443
-0.000540485
0.0126542
0.015676
0.00071698
-0.0182962
0.000388768
-6.98106e-05
-2.50329e-05
2.38562e-05
2.03319e-05
1.37798e-05
8.46381e-06
4.75861e-06
-6.74557e-06
-9.80556e-06
1.64958e-05
2.79511e-06
-5.21413e-06
6.49519e-06
2.25474e-05
4.94911e-05
7.73849e-05
4.03949e-05
1.59912e-05
4.33377e-06
4.64593e-06
-5.17078e-06
4.96218e-07
0.00476974
3.20082e-06
-0.00475811
0.00555319
5.75752e-06
-0.00655726
0.00657508
-0.00553584
0.00560597
6.95718e-06
-0.00664532
0.006554
-0.00555536
0.00476027
-9.26387e-06
-0.00484059
0.00404374
-0.00401963
0.0040299
-0.00403729
1.49114e-05
-0.00475283
0.0048552
1.33745e-05
-0.00559571
3.82996e-06
-0.00654424
0.0066693
1.3781e-05
-0.00775513
-8.52787e-07
-0.00899386
0.00914886
-0.00900687
0.00903296
9.2756e-06
0.00768606
-0.00766018
5.89997e-06
0.00777085
1.84753e-05
-0.00911524
0.00900859
-0.0076617
-3.22909e-05
-0.00750949
0.00460877
1.39768e-05
0.00631846
-3.73048e-05
-0.00549625
0.00341747
2.36111e-05
0.00462843
-0.00407182
0.0034965
-1.37129e-05
-0.00355216
-9.94744e-07
0.00347318
2.07658e-06
-0.00346673
9.88542e-06
0.00355853
1.70454e-05
-0.00349095
0.00408531
-0.0046317
4.01308e-05
4.90757e-05
3.78479e-05
0.00013864
8.96683e-05
-0.0018196
0.00188077
-0.00185214
0.00185324
1.31415e-07
-4.59741e-06
-4.40537e-06
-0.00187996
0.00182039
-8.94417e-05
-5.10797e-05
0.00095145
-0.00106509
3.40041e-06
-7.15039e-06
0.0031695
-0.00320731
0.00321212
-0.00316678
0.00327946
-0.00342677
-8.30455e-05
-2.60955e-05
-0.000950108
5.18261e-05
0.00106517
-4.45011e-05
2.71883e-05
2.35397e-05
4.23432e-06
7.30163e-06
1.12651e-05
1.46034e-05
1.4081e-05
-0.010468
1.04042e-05
-0.012153
0.0121867
-0.0122907
0.0121761
2.77959e-05
0.0106289
-0.0104589
-2.55601e-05
-0.0102873
0.00630246
2.74531e-05
0.00872056
-0.00537361
-0.00014047
-0.00428565
0.00486899
-0.000276827
-0.00588975
0.00666453
-0.000322649
-0.00792409
0.00906722
-0.00027169
-0.010378
0.0121197
-0.000347239
-0.0135472
-0.0011127
-0.000337745
-0.000570292
-0.000174841
-0.000410506
-0.000173755
-0.000339361
-0.000155309
-0.000270252
-0.000101866
-0.000165184
0.00360871
-0.00389481
-0.000103153
-0.00303405
0.00287093
0.000145272
3.57167e-05
-0.000187435
-5.13798e-06
-0.00179223
-6.61281e-05
0.00271618
0.000139288
-0.00408633
-3.26889e-05
-4.11779e-05
0.00022058
0.000125403
-0.000170523
-0.00181386
0.00275652
0.000891899
0.0030578
0.00111327
0.000633465
0.000128232
0.000415457
-0.00268372
0.00342674
-0.00327293
8.40477e-05
1.21771e-05
-0.000149515
-3.72575e-05
-1.11965e-05
0.000134195
0.000121004
0.000147421
0.000195287
5.23989e-05
-0.013879
0.00850889
-0.00735152
0.0119295
2.43396e-05
6.44157e-06
-1.23458e-05
3.04783e-06
1.50939e-05
3.10968e-05
4.42841e-05
5.80758e-05
-7.50486e-06
-0.0139461
3.35522e-05
-0.0161256
0.0160347
-0.0182603
0.0112048
9.52252e-05
0.0159936
-0.00987906
-0.000133593
-0.000151178
0.000720094
0.000559187
0.000529714
0.000756535
0.0119525
0.0174412
-0.0200766
0.00196694
0.000185363
-1.14593e-05
0.000534227
-8.76197e-05
8.17196e-05
-0.0108868
0.000244449
0.00104759
-0.0144107
0.000655945
0.000107944
5.43612e-05
0.000110788
0.000220384
0.00031935
0.000154846
6.63077e-05
3.43695e-05
2.8807e-05
2.61428e-05
3.70197e-05
4.92335e-05
3.34647e-05
2.79643e-05
3.308e-05
2.44356e-05
2.03793e-05
5.93962e-07
1.59885e-05
1.47382e-05
0.000122233
4.07188e-05
3.24808e-05
2.24992e-05
1.93439e-05
9.83701e-06
7.51096e-06
2.54427e-05
3.6902e-05
1.48876e-05
-0.000174695
3.50772e-05
3.9346e-05
3.14066e-05
5.06451e-05
7.61871e-05
8.08384e-05
0.000137126
7.18867e-05
0.000135148
6.89608e-05
0.0175973
-0.0202889
0.000256884
0.0218213
0.000403974
8.09924e-05
0.000223627
0.00130491
-0.00404642
0.01271
-0.0104971
0.0221321
0.00321135
0.0139362
-0.011923
0.0101395
-0.0101135
0.00705252
0.00800549
-0.0109893
0.0024921
-0.0117871
0.00745091
0.00771147
0.0146239
-0.000751276
-0.000275472
-0.0018366
-0.000119843
-0.00760346
-0.000146043
-3.56818e-05
4.06356e-05
5.63007e-05
9.66905e-05
5.51773e-05
4.44491e-05
5.30053e-05
4.3359e-05
-1.51823e-06
4.33638e-05
5.36701e-06
0.00027784
0.000192454
0.000141262
-0.0130986
0.0149453
0.000351751
-0.0109916
-0.000536902
0.0126066
0.015913
0.000698342
-0.0148633
-0.000696953
-0.0181511
0.000438028
0.000372364
-1.8575e-05
1.49244e-05
8.82725e-07
0.000236466
4.60719e-05
2.4456e-05
3.27258e-05
2.63705e-05
-7.88167e-06
0.000216188
0.000140018
6.12454e-05
-0.00391263
-0.000161226
0.00415794
1.72597e-05
0.00323726
-0.00258587
-0.00252056
0.00303511
-0.00192312
-0.00178579
-0.00157144
0.000228773
-0.000308599
-0.000347523
-0.0057242
0.000926734
-0.00036827
-0.0011951
0.000583982
0.00113118
-0.000467361
-0.00961026
0.000750603
0.000136569
0.00163052
-5.37637e-05
-0.00213725
-0.000555376
0.00102481
0.00165491
0.00137605
-0.000494996
-0.00801471
-0.000446558
-0.00779523
0.00121311
-0.000638719
-0.0109254
-0.000576648
0.0100241
0.00131419
-0.000813424
-0.0145053
-0.0004313
-0.0175271
0.00194177
0.000793981
0.00443775
0.000349967
-0.023125
0.000954548
0.00194019
0.00220245
0.00344595
0.0133744
0.0314421
0.01647
0.0242543
-0.0019605
-0.00110567
-0.0187721
0.00109919
0.000425909
0.00228098
0.0162348
0.0235597
-0.00191574
-0.00103297
-0.000739414
0.012808
-0.0140684
0.0012094
0.0011848
0.000801484
-7.48649e-05
0.00164981
0.0149439
0.023756
-0.00197954
-0.00104704
-0.000745749
-0.0141821
-0.000907953
-0.00071342
-0.00056568
0.000831571
0.000641373
0.000383436
-3.71767e-05
0.000240602
0.00100819
0.00113504
0.00111252
-0.00113191
-0.00143848
0.00155988
0.0136332
0.0265685
-0.00468234
0.00515377
0.00228457
0.00212917
0.000321588
-0.000149229
-7.34614e-05
-3.63956e-05
-1.9927e-05
-1.19432e-05
-3.60721e-06
1.55663e-05
2.1795e-06
6.20226e-07
-4.7006e-06
1.47353e-05
8.44014e-06
9.22156e-06
-9.47187e-06
-0.000134519
-0.000223969
-0.000132907
2.47574e-05
4.88841e-05
-0.00632818
0.00557807
1.8695e-05
1.79532e-05
1.9454e-05
2.65889e-05
1.88514e-05
2.66945e-05
4.85028e-05
-3.96297e-05
0.000934846
-0.00359546
0.000228172
8.50157e-05
1.19914e-05
1.59943e-05
1.85051e-05
2.90051e-07
-1.00616e-05
2.19522e-05
1.69052e-05
1.49229e-05
1.12196e-05
1.55474e-05
1.70234e-05
5.09265e-05
4.86739e-05
0.0159894
2.51085e-06
-0.0159574
0.0181126
-2.49649e-05
-0.0202364
0.020232
-0.0180829
0.0183879
1.84639e-05
-0.0204194
0.0204013
-0.0180307
4.12773e-05
0.0208908
-0.0130482
-1.35464e-05
-7.27448e-05
0.000132804
0.000260534
0.000260785
-0.000333496
-0.00144315
-0.0029251
-0.00584125
0.000107474
-0.00230679
-0.000884072
-0.000268194
0.000294042
0.000268735
3.58762e-05
5.1533e-05
6.01459e-05
3.40726e-05
0.0141945
-0.0139664
0.0140063
-0.0141641
-1.77737e-05
-0.015969
0.0161648
1.12912e-06
-0.0183754
-4.85782e-05
-0.0203102
0.0204408
-1.70173e-05
-0.0229233
0.0225743
-0.0259567
-2.8006e-05
-0.000160904
-5.86245e-05
2.08427e-05
3.75039e-05
0.000131229
0.000308586
0.000883253
0.00455289
-0.00229411
0.0594341
-0.00154951
-0.000280314
-0.00111726
-0.0114205
0.00249692
0.00661231
0.000527885
-0.000115032
-0.00599056
-0.000137869
0.000151678
0.00033685
2.79561e-05
3.53708e-05
0.000551251
0.000315889
-0.0190388
0.0165061
-0.000754972
-0.000471903
-0.000119352
0.00331748
-0.000849568
0.00272771
0.00443673
0.00773041
0.0149854
0.00339129
-0.00867763
0.0034925
-0.0117573
0.00277206
0.00134191
-0.00829784
0.000561243
-0.000145231
1.54113e-05
-2.91052e-05
1.22882e-05
0.000133715
-8.11935e-05
-0.000195003
-5.67818e-05
-0.000217352
-5.27808e-05
8.94882e-06
-2.24273e-06
1.49391e-05
-9.88444e-06
-2.64776e-06
-4.58626e-05
6.31746e-06
7.3466e-05
0.000154592
0.000425975
0.00634967
0.0270751
0.00145856
-0.00391571
0.017336
0.000524616
-0.00288234
-0.00154355
-0.00248832
0.0590419
-0.00126489
-0.000299674
0.000477018
0.000124337
0.000292258
-0.00545216
-0.000156009
-0.000153519
-0.00117749
-0.0115179
-0.0104392
-0.0066296
-0.0240062
0.00253731
0.005876
0.000269703
-0.000334391
-0.000354933
-0.000205968
-0.00663891
-0.000346744
0.00323197
-0.00207955
0.003463
-0.00022453
-0.00608848
-0.00037333
-0.000173141
-3.91327e-06
0.000458253
0.00201609
0.000475161
0.00053191
0.00192935
0.00186985
0.00022148
-0.00011055
-2.8304e-05
5.6219e-05
0.00017206
-9.20533e-05
-2.48446e-05
0.00126477
0.0208068
0.00158438
0.000586679
-0.000133081
-0.000177387
-0.000156192
-0.000127724
-0.000112548
1.07588e-05