/*--------------------------------*- C++ -*----------------------------------*\
| =========                 |                                                 |
| \\      /  F ield         | OpenFOAM: The Open Source CFD Toolbox           |
|  \\    /   O peration     | Version:  2306                                  |
|   \\  /    A nd           | Website:  www.openfoam.com                      |
|    \\/     M anipulation  |                                                 |
\*---------------------------------------------------------------------------*/
FoamFile
{
    version     2.0;
    format      ascii;
    arch        "LSB;label=32;scalar=64";
    class       volScalarField;
    location    "2.7";
    object      gradTx;
}
// * * * * * * * * * * * * * * * * * * * * * * * * * * * * * * * * * * * * * //

dimensions      [0 -1 0 1 0 0 0];

internalField   nonuniform List<scalar> 
5322
(
-0.0184204
0.000955013
0.00103157
-1.29658e-06
-7.02813e-05
-6.34004e-05
-4.62602e-05
-3.40249e-05
-2.68419e-05
-1.87978e-05
-1.27066e-05
8.71134e-05
0.000127718
-0.00174879
-3.27857e-05
0.0031948
-0.00249795
3.02912e-06
-0.00200514
0.0016364
-0.00219885
0.00255762
-0.00270633
0.00369109
-0.00381548
0.00490794
-0.00494455
0.00672473
-0.00673684
0.00859474
-0.00816671
0.0115557
-0.00855976
0.0159714
0.00121834
0.0230991
0.0163703
-0.00649045
0.018013
-0.00106699
-0.0170947
0.0171454
-0.00103851
-0.0182318
0.0181363
-0.00062107
-0.0193758
0.017049
-0.000405799
-0.0203378
-0.0201819
-0.0290158
-0.00955209
0.018471
-0.00121569
-0.0302086
-0.000922128
0.0287253
-0.000347648
-0.0287199
-0.00012503
0.0279778
-0.000148474
-0.0282064
2.44641e-05
0.0276005
0.000404701
-0.0279347
0.00144058
0.0230263
0.00128819
-0.0223087
0.0253295
-0.0261174
0.025133
-0.0256048
0.0256285
-0.0256363
0.0292004
-0.0213612
0.0101038
-0.0153037
-0.0102793
0.0162479
0.00138965
-0.00743522
0.0116914
-0.0322132
-0.01041
0.0357485
-0.00161353
0.000389016
0.000684813
0.00418441
0.0216245
-0.00440859
0.000170152
-0.00169143
0.0120333
-0.0284634
-0.0284118
0.0589623
-0.00169857
0.0167244
0.027295
0.000465854
0.000275544
0.000224568
0.000112764
3.91015e-05
5.97513e-06
-7.57349e-06
-1.6753e-05
-2.56277e-05
2.69492e-05
-1.37935e-05
-0.00103839
-0.0010098
0.000123272
0.000633464
2.85179e-05
0.00094374
-0.00113154
-8.69088e-05
-0.000277122
0.00175874
0.00143609
0.000386595
0.00112704
0.000716127
0.000539564
0.00121076
0.000596812
0.000641664
0.00123171
0.000519193
0.00102094
0.00140107
0.00158158
6.69393e-05
-0.00117075
5.66932e-05
0.000797136
-0.000976683
-0.00106083
0.000166732
0.00042039
0.000223224
-0.000829354
-0.000913601
0.000189214
0.00025342
0.000311144
-0.000902933
-0.000851304
0.000191154
0.000159212
0.000503672
-0.000968368
0.00127202
-0.00282798
-0.00375712
0.00359236
-0.0045876
-0.000220295
-0.00282521
4.60277e-05
0.00261501
-0.000613594
0.00290498
0.00143405
0.0021464
-0.0033935
0.00128543
-0.00292768
0.00213927
0.00278256
-0.00376693
0.000212446
-0.00320144
0.00325858
0.00405211
-0.00496536
0.000163163
-0.00416208
0.00465471
0.00568785
-0.0067974
0.000252268
-0.00567562
0.00648874
0.00788646
-0.00932563
0.000348513
-0.00779182
0.00876408
0.0106905
-0.0126511
0.000454042
-0.0105947
0.0114085
0.0140631
-0.0168379
0.000590038
-0.0140823
0.0142432
0.0178669
-0.0216291
0.000800359
-0.0178562
0.0167032
0.0208148
-0.00391839
0.0115107
-0.0281924
-0.0287513
0.059244
-0.00245671
-0.00263358
0.000790963
0.0045408
0.0215199
-0.00330975
0.000388575
-0.00388904
0.0110258
-0.0286776
-0.028272
0.0588862
-0.00217071
0.0167178
0.000145509
0.000444428
0.000268065
0.000147766
6.00766e-05
1.62473e-05
-3.03351e-06
-1.48538e-05
-2.32359e-05
2.67345e-05
-1.30363e-05
0.000818259
-0.000911269
0.00091094
-0.000819106
2.76857e-06
0.000818041
-0.00076687
-2.16501e-06
-0.000938174
1.16787e-06
-0.000815464
1.07647e-06
0.000767853
3.08594e-05
0.000874903
-7.24888e-05
-0.000948714
2.29453e-06
0.000937881
-5.13631e-07
4.58694e-07
0.00169785
-0.00305149
0.00305123
-0.0030125
0.00347009
-0.00396936
0.00476527
-0.0055019
0.00655743
-0.00762298
0.0090321
-0.010437
0.0122714
-0.0139715
0.016305
-0.0181527
0.0210028
-0.0224979
0.0257638
-0.0147515
0.000360596
0.0149429
0.000429283
-0.0250929
0.021924
0.000128525
-0.0203667
0.0177778
8.04653e-05
-0.0158112
0.0137068
5.01366e-05
-0.0119045
0.0102354
3.04777e-05
-0.00876335
0.00746935
2.04387e-05
-0.00635625
0.00539103
1.75828e-05
-0.00460332
0.00391145
1.47555e-05
-0.00333603
3.69949e-06
0.00334044
-0.00390542
-1.40171e-05
-0.0034602
0.0030121
-6.06348e-06
-0.00171064
-0.000110941
0.00173826
-0.00316054
0.00333431
-0.00391504
0.00453647
-0.00532151
0.00627066
-0.00732543
0.00866387
-0.0100061
0.0118165
-0.0133713
0.0158087
-0.0172857
0.0205575
-0.0211134
0.0253379
-0.014573
-0.00349919
0.00616532
0.000702241
-0.0235828
0.0191675
0.000176778
-0.0185979
0.016003
-4.89022e-05
-0.0139991
0.0122451
-9.0955e-05
-0.0104611
0.00908205
-8.16964e-05
-0.007707
0.0066369
-8.23725e-05
-0.00559832
0.00484218
-9.14358e-05
-0.00406025
0.00358522
-0.000121701
-0.00294617
0.00247599
3.91259e-05
-0.000859313
0.00144578
0.00238715
-4.41067e-06
0.000275843
-0.000438798
0.00128193
-0.00395948
0.0032887
-0.00458011
-0.00308529
-0.00383232
0.000227666
0.00227386
0.00252625
-0.00331589
0.00123835
-0.00295581
-0.00024881
0.000129674
-0.00114815
9.51081e-05
-4.73002e-05
-0.00119955
6.6182e-05
-0.000236701
-0.00301928
-0.0032751
0.00259267
-0.00372018
-6.20672e-05
0.00391929
-0.00492529
0.00558805
-0.006756
-0.000233048
0.00779817
-0.00928431
0.0105866
-0.012609
7.46575e-05
0.0139055
-0.0167196
0.017553
-0.0211709
0.00438161
0.000780452
0.000251689
0.000294369
-7.3882e-05
0.000107966
0.0144113
-0.0171619
0.000698578
-0.0139227
0.0132043
0.0183071
-0.0212523
0.00107243
-0.018684
0.0147591
0.0296141
-0.00267854
0.00129129
-0.0308994
-0.0286879
0.0562116
-0.00376287
0.000618616
0.00110598
-0.0140368
0.00283128
0.00865659
-0.00899105
0.000616623
0.00722156
-0.00645838
3.43714e-05
0.00527552
-0.00492579
-5.20542e-05
0.00367131
-0.00353095
-0.000119466
0.0027892
-0.00249051
-0.000176405
0.00217403
-0.00149847
-0.00021474
0.00206894
0.000746736
0.000536726
-0.000114744
-5.7979e-05
0.000970641
-0.000412892
0.00488354
-0.00601498
0.00694131
-0.0082458
-0.00533172
-0.00694241
0.000255978
0.00455822
0.00573986
-0.00505762
0.000168151
-0.00390202
-0.000108395
-5.72851e-05
-3.75679e-06
-6.19876e-05
-7.38607e-05
0.000235875
0.000179649
0.000162124
-0.000599909
-0.000155119
0.0013826
0.00208473
0.00175778
0.000607529
0.00282012
0.00106842
0.000740659
0.000473548
-0.000261844
-0.000837341
-0.00113289
-0.000534901
0.000448692
-0.000762831
6.52675e-05
0.00124951
-0.00112283
0.00966025
-0.0113199
0.0131664
-0.0154666
-0.0101254
-0.0129867
0.00048984
0.00840198
0.0109269
-0.00955255
0.000360975
-0.00735819
-0.000140461
-4.83138e-05
-7.35648e-05
-0.000106522
-0.000265651
4.4264e-06
-5.73597e-05
-0.000185674
3.69277e-05
1.99679e-05
0.00104404
3.81789e-05
-9.05915e-05
-2.11629e-05
2.60264e-05
1.54263e-05
-7.92674e-05
0.000178227
-0.00204839
-6.14623e-05
-1.16816e-05
-6.27417e-06
-2.72689e-05
0.0039783
1.21897e-05
-0.00475313
0.00461407
-0.00537575
-1.05876e-05
0.00552555
2.33672e-05
-0.00653945
0.00638128
-0.00743877
2.95719e-07
0.00766899
3.6469e-05
-0.00900189
0.00881426
-0.0101787
1.5527e-05
0.0105208
5.54918e-05
-0.0122249
0.0119986
-0.0136082
4.1002e-05
0.0141162
7.28712e-05
-0.016237
0.0159653
-0.0176195
8.77399e-05
0.0183518
3.21541e-05
-0.0208828
0.020555
-0.0217296
0.000140821
0.0225757
-0.000178906
-0.0255296
0.0251716
-0.0148163
-3.05379e-05
0.0146962
-0.00100611
-0.00232179
-0.00195076
-0.00275068
-0.0286662
0.00623637
0.00443076
-0.00226041
-0.00456536
-0.00166798
-0.0248942
0.00558158
-0.00918782
-0.0129337
-0.00294442
-0.00390485
-0.0049256
-0.00266818
-0.00140645
0.000662586
-0.000796872
-0.00163712
-0.00154668
-0.00107202
-0.000847296
-0.000688458
-0.000166409
0.00163482
0.00180763
0.00179542
0.00206685
0.00265198
0.00252825
0.00190732
0.00192051
0.00128384
-0.00113416
0.00036184
-0.000131001
-9.1376e-05
0.000328568
-0.000988454
-2.26353e-06
-1.13943e-06
-2.63129e-06
1.22435e-06
-0.000627982
-0.000719373
-0.000714316
-0.000634299
0.000631552
-0.000526855
2.18766e-05
0.000720268
-0.00061182
-0.000613075
2.2023e-05
0.000716457
9.32742e-07
2.11701e-06
2.41534e-06
2.20996e-06
-2.38806e-05
2.33938e-05
-1.07845e-05
-4.87756e-06
7.25356e-06
2.81805e-05
6.74506e-05
7.97879e-05
-2.55211e-05
-0.000366284
0.000279918
-0.0002595
0.00198572
-0.00279323
0.0177228
-0.0206561
0.0235716
-0.000283717
-0.00675583
-0.00122834
0.00187376
6.62578e-06
0.000371703
0.00068507
-0.00252689
-0.00449525
-0.00862577
-0.0198883
-0.0204506
-0.0474196
-0.0198377
-0.0170082
-0.000358763
-0.00660689
0.00592988
-0.0410416
-0.0249381
-0.0120339
0.0180587
0.00144366
0.000799036
-0.0185546
0.0195514
0.000126402
-0.00240665
-0.0202699
0.0196246
3.909e-05
-0.00266131
-0.0197872
0.0195682
0.00016262
-0.00428747
-0.0188857
0.0139661
-0.0118295
0.0101784
0.00775676
0.0221298
-0.0104047
-0.00582479
0.00326465
0.0126865
-0.039119
-0.00195399
-0.0227546
0.0216269
0.0206402
0.0190848
0.0240944
0.0108446
0.00186569
0.00884524
0.0129938
0.0206281
-0.00757752
0.00184278
0.0126466
-0.00861696
0.000107941
0.0087658
-0.0068986
-1.94468e-05
0.00652909
-0.00506555
1.14131e-05
0.00486851
-0.00368414
1.40588e-05
0.00356854
-0.00269791
-9.78369e-06
0.00252531
-0.00211594
-0.000136316
0.00162386
-0.00196107
-0.000695248
5.93352e-05
-0.00238707
-0.00147164
0.000870497
-0.00247466
0.00299034
-0.00356068
0.000118232
-0.00333763
0.00315789
-3.20219e-05
-0.00173434
0.000111955
0.00171397
-0.00169501
8.46234e-06
1.20275e-05
4.43528e-06
4.8572e-06
9.44574e-06
1.42434e-05
3.97976e-05
5.93925e-05
9.47738e-05
-0.00032081
4.57448e-05
-0.000131949
0.00161228
-0.001658
8.18107e-05
9.69476e-05
0.000530362
0.000536599
0.00625381
0.00803307
-0.000232422
-0.0056608
0.00649774
0.000351056
-0.00777801
0.00875416
0.000459176
-0.0106146
0.011367
0.000599839
-0.014236
0.0141483
0.000802729
-0.0183205
0.000177851
0.000486623
-0.00309552
-0.00308716
-0.00811324
-0.00417666
-0.00242537
-0.0015299
-0.00108115
-0.000869578
-0.000706434
-0.00019124
0.0015973
0.00174758
0.00171883
0.002531
0.00153205
-0.000190748
-0.000675303
-0.000870565
-0.00111256
-0.00155386
-0.00240576
-0.00411285
-0.00778548
-0.0179592
-0.0188557
-0.0326394
-0.026073
-0.00861677
-0.00859829
0.0164451
0.00177977
-0.00204899
-0.00163656
0.00779042
0.000275674
-0.00631356
-0.00603493
0.0061976
-8.35586e-06
-0.0069315
-0.00662628
0.00546001
-3.31639e-08
-0.00860869
-0.00820804
0.00272031
-0.0117239
0.00799138
0.00775749
0.00810512
0.00708761
-0.0100603
0.000766823
0.00361785
-0.0116607
0.00270082
-0.0109467
0.01263
-0.0278255
-0.00123607
-0.0267848
0.02
0.0212297
0.0205973
0.0202007
0.0205282
0.0200967
-0.0289982
-0.0014875
-0.0261554
0.0170503
0.0182867
0.0171245
0.0180561
-0.00123445
-0.0279016
-0.0277189
0.0126638
0.0206499
0.0189426
0.0181254
0.0226114
0.0223216
0.0174521
0.0050605
0.0106216
0.00445617
-0.00245255
0.00430516
0.00090868
-0.00315687
0.00252471
0.000297777
-0.00258435
0.00192016
0.000193083
-0.00203231
0.00141858
0.000122444
-0.00149889
0.00108481
0.000105099
-0.0011255
0.00075688
2.41515e-05
-0.000853648
0.000524865
-8.05441e-05
-0.000807825
0.000223293
-0.000488988
-0.00122632
-0.000568693
-0.00172884
-0.00208719
-0.00210381
-0.00141553
-0.00102845
-0.00159218
-6.58244e-05
0.00117676
-0.000881814
8.76129e-05
0.000972047
-0.000967926
4.13684e-05
0.00101215
-0.00103902
-3.54689e-05
-7.23198e-05
-0.00184075
-6.32858e-06
-0.00312521
4.704e-06
-0.00338374
2.16519e-05
0.00396131
-0.00401866
-2.01169e-06
-0.004571
9.8529e-05
0.00536659
-0.00487213
9.05776e-05
0.00569687
8.26994e-05
-0.00668078
0.000122133
0.00781028
9.56192e-05
-0.00910815
0.000158511
0.0105408
6.02373e-05
-0.0121654
0.000191455
0.0138818
5.51832e-05
-0.0158105
0.000243201
0.0177948
-0.000156188
-0.0197367
0.000420096
0.0219228
-0.000244171
-0.000668661
-0.0273741
-0.0198222
0.000765991
0.0228688
-0.000308928
-0.021833
-0.0151564
0.000643739
0.0188408
-0.000187054
-0.0169684
-0.0116718
0.000407148
0.0146423
-0.000147778
-0.0128517
-0.0087971
0.000275886
0.0110318
-8.71711e-05
-0.00946505
-0.00648622
0.000176943
0.00811093
-6.48672e-05
-0.00683843
-0.00469543
7.71536e-05
0.00595537
-1.74814e-05
-0.00483111
-0.00337507
2.92132e-05
0.00454526
6.7746e-05
-0.00327277
-0.00232678
0.000226643
0.00393909
0.000454966
-0.000301884
0.000872542
-0.00147475
-0.00239479
6.34377e-05
-0.000705897
7.29494e-05
0.00209245
-0.00017168
3.10569e-05
-0.00174788
1.01628e-05
0.00313266
-0.0030587
-1.37079e-05
-0.00336174
0.000122404
-0.00360616
5.37557e-05
0.00414801
0.000137713
3.69247e-05
1.87249e-05
3.97917e-05
0.00351909
2.98091e-05
-2.64161e-05
-0.000769853
-2.12374e-06
0.000838627
1.03881e-06
3.18229e-06
4.14778e-06
-0.000131121
-0.000152056
-0.000109149
-0.00117504
6.07347e-05
-0.000234221
-6.3956e-05
-6.00227e-05
-6.23743e-05
0.00398736
0.0032919
-6.58701e-05
0.000228008
3.89735e-05
6.90003e-06
0.00228599
0.000219061
-0.00322226
0.00333173
0.000164242
-0.00415932
0.00468868
0.000252466
1.8103e-05
-0.000132115
-0.000141168
-0.000182691
-0.000187589
-0.000212902
-0.000198721
-0.000188241
-0.000135592
-0.000137372
-0.000137189
-7.3719e-05
-8.10615e-05
-0.00317076
0.00325259
0.00519151
-0.00602385
0.00718963
-0.00823468
-0.000119984
-0.00553968
6.22175e-06
0.00493221
-0.000124136
-0.00404694
-8.38402e-05
0.00380754
1.40338e-05
0.00013656
-0.00300632
-0.000112253
0.00356367
-0.00385283
7.03986e-06
-0.00745396
-3.46787e-05
0.00864157
-0.00760032
1.24179e-05
-0.00900364
1.14172e-05
0.0104823
-0.0103453
3.0678e-06
-0.0119269
7.51185e-06
0.0137159
-0.0141069
-3.19819e-05
-0.0153982
6.75534e-05
0.0173966
-0.0196305
-5.46975e-05
0.0217078
-0.0237672
-0.000315292
-0.000662789
-0.000119445
-2.85567e-05
2.0949e-05
3.028e-05
2.87835e-05
2.87507e-05
3.02191e-05
-2.38179e-05
1.32798e-05
-0.000816921
0.000916198
-0.000903351
-0.000832917
8.14489e-06
6.92825e-06
-2.16029e-05
4.84289e-05
0.000789119
6.50946e-06
-8.91575e-06
-7.22453e-05
9.21891e-05
-8.3332e-05
-0.00114916
5.74435e-05
-0.000285519
0.00202178
0.000233284
-8.20312e-05
-6.05476e-05
3.80451e-05
-2.1486e-06
0.000607849
0.00061742
-1.82605e-05
0.000521143
0.000818937
-1.40088e-05
-1.73707e-05
-1.67869e-05
-4.71267e-05
3.93611e-05
-0.000933033
0.00269713
0.000136972
-0.00406117
-3.36096e-05
0.00459037
-0.00403978
-1.28359e-05
-0.00478073
3.43993e-06
-0.00547034
-1.37e-07
-0.0064283
2.07562e-05
0.00753327
-0.0077223
-1.07974e-05
-0.00865752
0.000100076
0.010072
-0.0116929
9.34131e-05
0.0134324
-1.90349e-06
1.19921e-05
1.59906e-05
1.87828e-05
1.9049e-05
2.49408e-05
3.15051e-06
3.9075e-07
-2.06463e-05
-2.05586e-05
-5.87613e-05
-8.65752e-05
-1.86883e-05
-1.99856e-05
4.50672e-06
4.54027e-06
7.27257e-06
8.92279e-06
1.21802e-05
1.64674e-05
1.89489e-05
2.07687e-05
2.94466e-05
3.46521e-05
0.000150527
0.000199316
-0.000481236
0.000299708
-0.000803846
0.00399838
-0.0239375
-0.00643995
0.000146178
-0.00220961
0.011074
-0.011076
-0.0341056
-0.013076
-6.52143e-05
0.00330614
0.00021861
-0.0262402
-0.0114467
-0.00769401
0.0156363
0.00175241
-0.0017707
-0.00299502
0.00844825
0.000273055
-0.00588634
-0.00726269
0.00725859
1.26822e-05
-0.00646591
-0.00762294
0.00675552
5.88377e-05
-0.00830037
-0.00864719
0.00167752
-0.000476012
8.25578e-05
9.00286e-05
0.0216656
-0.0196204
0.000275285
0.0181419
-0.000571491
0.000366756
-0.0229297
0.000431166
-0.0141919
0.0161114
0.000153431
-0.017189
-0.0300922
0.0232564
-0.00174283
0.00287325
0.00987956
-0.000125687
0.0229651
0.0168628
0.0189427
-0.0231621
0.000704529
-0.0195804
-9.07189e-05
-0.0216645
0.000893988
-0.0207588
-9.90552e-05
-0.0208689
0.000942038
-0.0222856
0.0176264
0.0172672
-0.00116574
-0.0336899
-0.027069
0.0124913
-0.00882318
0.0120127
0.00688487
0.00812496
-0.0108227
0.00301248
0.00232094
-0.0120011
0.00454966
0.00827812
-0.010195
0.016947
-0.00906248
0.00146131
-0.00910666
0.00145753
-0.00984062
-0.00770122
0.00137043
-0.000636831
-0.000110495
-6.12774e-05
1.00504e-05
4.36766e-05
4.14016e-05
3.32112e-05
2.98377e-05
3.0194e-05
-2.42334e-05
1.40982e-05
-0.000526177
0.000632196
5.27934e-06
0.000125187
8.94956e-05
7.23781e-05
-0.000878494
-5.60243e-05
0.000980838
-0.000794636
-0.000426814
0.000987786
-0.00102739
-0.00142044
-0.00159587
0.0011586
0.00117505
-6.7978e-05
-9.70414e-05
-0.000325291
3.964e-05
0.00120803
-0.00020927
-0.000275211
-0.000182189
0.000906009
0.000907647
-0.000277562
-0.000206185
0.00114073
-0.000588409
-0.00127984
-0.000591981
0.00118947
-5.87734e-05
-6.81211e-05
-0.000132422
-9.32148e-07
7.6208e-05
0.00209314
-0.000175275
8.58122e-05
-6.85988e-06
-1.0391e-05
-1.57403e-05
-2.27116e-05
-3.60424e-05
-6.61188e-05
-0.000125839
1.42633e-05
-6.06758e-05
9.47783e-05
-0.000776895
-0.000237269
0.00073535
-0.00138606
-0.000525802
-0.000541849
-0.0159339
0.0153111
-0.000450112
-0.000350553
0.00094553
-0.000612834
-0.000354847
0.00274634
0.0051545
0.00272106
0.0160389
-0.00762153
0.00162981
0.0109584
0.0126585
-0.00395945
0.00113673
-0.000157097
0.000803138
-0.000191278
6.68047e-05
-0.00130097
-0.000120247
5.51231e-05
2.16867e-05
1.11198e-06
-8.51321e-06
6.62338e-06
-1.1365e-05
1.63815e-05
2.53121e-05
1.70035e-05
9.16013e-05
0.000200765
0.000287852
0.000369352
0.000453594
0.000616809
0.000432592
0.000131483
0.000241386
0.000141278
6.45331e-05
2.80217e-05
2.42474e-05
1.48498e-05
3.3128e-05
3.66124e-05
-0.0045335
0.00410304
-0.00480491
0.00562601
-0.00659392
9.75174e-05
-0.00624474
0.00532083
9.4778e-05
2.60378e-05
1.90061e-05
2.40139e-06
0.00391396
2.72052e-05
-2.82808e-05
0.000950535
-1.60266e-05
2.44286e-05
9.04549e-05
-0.000159698
0.00105859
0.000830761
-0.000355299
0.000142453
-2.49608e-06
-9.72063e-07
0.00053124
-1.78056e-05
-7.55932e-07
0.00037102
-0.00113484
0.00032545
4.63837e-06
0.000130594
9.50876e-05
1.02672e-05
-9.60027e-05
4.20574e-05
8.89057e-05
-0.000355999
-0.000326951
0.0010625
-0.000428562
-0.000792899
-0.000161421
0.000989386
-5.46651e-05
9.09129e-05
6.36261e-05
-3.6921e-05
1.94488e-06
2.60302e-05
6.37717e-05
5.61511e-05
9.41063e-07
5.05078e-05
6.02472e-05
8.73788e-05
2.06498e-05
4.31933e-07
2.29704e-05
-1.16921e-06
0.00733337
-0.00860072
0.00772281
-0.00901468
0.0104593
-0.0121062
0.000171748
-0.011677
0.0100268
0.000122498
1.16899e-05
9.9344e-05
0.000116392
0.000141361
0.000131476
3.0592e-05
-1.81972e-06
2.80402e-05
2.74284e-05
4.26078e-05
3.17219e-05
4.83669e-05
0.000117377
0.00040563
0.000280759
0.00137614
0.000132857
6.14965e-05
2.74714e-05
5.61008e-06
-1.55686e-05
-6.42538e-06
-6.96247e-06
8.88782e-06
4.49403e-06
3.57509e-06
1.584e-05
1.83948e-05
1.48863e-05
-3.61403e-06
-1.47396e-05
-7.72786e-06
-9.99618e-06
-8.02289e-06
3.92398e-06
7.75081e-06
1.30773e-05
2.04876e-05
2.65471e-05
4.0482e-05
3.30285e-05
3.8877e-05
7.46785e-05
6.36075e-05
4.26534e-05
0.000106258
0.000255486
9.09916e-05
0.000104485
0.00355737
-0.000644051
0.000374637
8.28739e-05
0.000293707
0.00763288
-0.000315026
-0.00111052
0.00601175
0.00200955
-0.0261829
-0.00947144
-0.017264
0.0166964
-0.0117778
-0.0126334
0.015052
-0.0184277
-0.00100104
-0.00137734
-0.0169715
0.0151278
-0.000159891
-0.000772572
-4.82961e-05
0.000293473
0.000402644
0.00637172
0.00216635
-0.0116754
-0.010622
0.0183299
0.00169411
-0.00433282
-0.00131815
0.00727164
0.000197414
-0.00843555
-0.00548333
0.00552036
-1.91265e-05
-0.00878472
-0.00603793
0.00483475
-5.08032e-05
0.00769205
0.00745197
0.000435975
0.0101628
-0.00992231
7.13766e-05
-0.00813667
-5.77437e-05
-0.000154207
-2.37003e-05
6.13698e-06
1.70667e-05
1.53536e-05
1.11994e-05
7.44355e-06
3.90916e-06
-5.57919e-06
-1.80027e-05
0.000173375
-0.00412152
0.00467726
0.000255011
-0.00562907
0.00652072
0.00989453
-0.0112734
0.0133836
-0.0152593
-0.00015401
-0.010446
0.000160501
0.00917866
-0.000142177
-0.00763118
6.89018e-05
0.00672972
-0.000426058
-0.000291724
-0.00583462
-0.000173325
0.00658077
-0.00727502
4.09553e-05
-0.0137733
-1.6675e-05
0.015844
-0.0138351
2.27583e-05
-0.0159359
3.06035e-05
-0.0178801
-3.05393e-05
-0.0199011
-6.20145e-05
0.0219998
-0.0228432
-1.02697e-05
0.0243221
-6.01198e-05
-0.0239296
0.0238513
-7.31554e-05
-0.022257
0.0225006
-0.0241583
-1.37432e-05
2.33897e-05
0.000121637
9.13316e-05
4.31189e-05
1.64067e-05
2.97986e-06
-7.22619e-06
-7.95606e-05
-9.26713e-05
-0.00018486
-0.000228317
-0.000197259
-0.000224217
-0.00772734
0.00881327
0.000468397
-0.0104976
0.011499
0.0176553
-0.0203437
0.0225676
-0.0262449
0.00048517
-0.0203056
0.00194373
0.016007
-8.11302e-05
-0.0143678
0.000515725
0.0123304
-0.000708344
-0.000285228
-0.0102738
-3.25268e-05
0.011982
-0.0129299
0.00012584
-0.0230523
0.000102954
0.0259457
-0.0222095
-7.27518e-05
0.0241318
0.000179278
-0.0274355
0.01607
-2.3227e-05
-0.016741
0.014645
-0.0179084
0.000620507
-0.00294525
-0.00147022
-0.00247786
-0.00418467
0.0191138
-0.0294988
0.00630978
-0.00634001
-0.00300076
-0.00172416
-0.00116296
-0.000854633
-0.000635738
-0.000379206
0.000380492
0.00525719
0.00254574
-0.00131957
0.000892907
0.000420003
0.00304038
-0.00265701
0.00274685
-0.000165396
-0.00180415
8.18927e-05
0.00340157
-0.00323722
-1.1687e-05
-0.00350585
1.77564e-06
-0.00396842
-1.50444e-06
-0.0046602
2.4229e-05
0.00544859
-0.00557486
-6.55726e-06
-0.00629682
9.14653e-05
0.00738754
2.92474e-05
1.46089e-05
0.00663507
2.56558e-05
0.00483009
-4.62581e-06
-1.62568e-05
-4.10485e-05
-0.000144466
1.82073e-05
0.00180351
0.000121089
0.000134707
0.000629752
0.00110853
-0.00177505
-7.08179e-05
-0.00286155
1.83263e-05
-0.00545775
-3.80964e-05
0.00626266
-0.0055114
2.29209e-06
-0.00656316
6.53256e-06
-0.00756994
2.89168e-06
-0.00883508
1.6575e-05
0.010288
-0.0105587
-1.78214e-05
0.0122635
-5.69592e-06
6.68473e-06
0.00909935
-3.43955e-07
2.2564e-05
8.00333e-06
-1.36557e-05
0.00471777
-4.01925e-05
0.00346655
0.000212191
-2.94399e-06
0.00284005
3.01378e-05
0.000127495
-0.000186979
0.00338491
-0.000108941
-0.000177269
-0.00424771
-0.000150905
-0.0053169
1.89828e-05
-0.0102096
-3.08789e-05
0.0118203
-0.0103748
2.02698e-05
-0.0121421
1.93559e-05
-0.0138047
-5.61273e-06
-0.0156722
-1.61085e-05
0.0177349
-0.0183105
-4.99973e-05
0.0203661
-4.05789e-05
-7.61304e-06
1.25828e-05
1.84063e-05
3.33827e-05
2.90332e-05
2.79079e-05
2.64732e-05
1.86831e-05
1.91639e-05
2.0538e-05
1.39788e-05
0.000135483
0.000211627
0.000289545
1.15125e-05
3.73028e-05
2.77012e-05
2.27078e-05
1.8324e-05
-8.71927e-07
1.71028e-05
-0.000151917
-0.00365253
3.26652e-05
-0.00357489
0.0045905
0.000109504
-0.00509783
-0.00521847
0.00467729
0.00437433
0.000106065
-0.00486726
-0.00556464
0.00496097
-0.00386768
2.70429e-05
-0.0034568
0.0033786
0.00355344
0.0035028
0.00342199
3.47306e-05
-0.00380357
-0.00353451
-0.000151817
0.00445179
0.000113298
-0.0054656
-0.00498749
-0.000232965
0.00602527
0.00024395
-0.0076505
-0.0069451
-0.00712976
-0.00730253
0.000245843
0.00622569
0.00635442
-0.00023154
0.00591045
0.000239009
-0.00677378
-0.00779285
0.00675701
-0.000239455
-0.00458297
-0.00686601
6.48767e-05
0.00402494
-0.000161434
-0.00329815
-0.0048565
1.45516e-05
0.00318932
0.00377136
-0.00245204
0.000212165
-0.00238076
-0.000214624
-0.00241692
0.000210346
-0.00237575
-0.000214262
-0.00242276
0.000218802
-0.00241857
0.00372473
0.00322444
-0.000225862
-2.17992e-05
0.000197877
-0.0016263
-0.00184034
-0.00176424
-0.00195964
-0.00186512
-0.00188038
-0.00190671
-0.00165783
-0.00254539
-0.00194173
-0.00177213
-0.00183596
-0.00123756
-0.000518289
-0.000648764
0.00113858
-0.00127826
0.00311039
0.00314544
0.0031221
0.00313145
0.0032467
0.00302891
-0.00123398
0.000993201
-0.000515455
-0.00123807
-0.000652109
0.00120854
-6.65614e-05
5.80098e-05
5.8974e-05
0.000138311
0.000215093
-1.05714e-05
-0.000318517
0.00859319
0.00038187
-0.00971538
-0.00995647
-0.00920719
-0.0106283
0.000366025
0.00799127
0.00916039
-0.000325365
-0.00632925
-0.00953068
0.000168458
0.00544175
0.00814907
-4.78165e-05
0.00083226
-0.00115349
9.89887e-05
0.00114207
-0.00157287
0.000139954
0.0015725
-0.00206722
0.000252514
0.00233439
-0.00243445
0.00079921
0.00433885
0.000952816
0.00195707
-0.000429618
0.00103715
-0.000553885
0.000759312
-0.000465839
0.000592463
-0.000364222
0.000420969
4.49666e-05
-0.000862723
0.00597191
-1.3556e-05
0.000580029
-0.000803159
-6.51747e-05
5.39833e-05
-0.000336664
-0.000610513
0.000269938
7.12748e-05
-0.00329024
0.000214978
-0.00228239
-0.000227356
-1.72842e-05
0.000224431
-0.00130191
-0.00210386
-0.00207297
-0.00173179
-0.00055942
-0.00123053
-0.000479909
-0.000918935
-0.00279733
0.000456717
0.0039421
0.00301292
0.00326737
-0.00123152
-0.00265977
-0.00161965
0.000205669
0.000777954
0.00070961
0.000928539
0.00113138
0.00137623
0.000266109
-0.00856983
-0.0129889
0.0110892
0.00738801
-0.000496426
-0.00034837
-0.000192598
-0.000162039
0.000924391
0.00104714
0.00120534
-0.000639214
-0.000415824
0.0121393
0.000499721
-0.012165
-0.01412
-0.0112557
-0.0173797
0.000358759
0.00988713
0.0148098
-4.46938e-05
0.00013393
7.18613e-05
4.6925e-05
8.40257e-05
0.000148429
-0.0155242
0.0138975
-0.0158227
-2.92569e-05
0.000281564
0.000193286
0.000104541
3.94308e-05
-2.71084e-06
0.0134216
4.26934e-05
7.71722e-06
0.0174424
0.000242772
-2.6457e-07
0.0003659
0.000433259
-7.44945e-05
1.12249e-05
3.93106e-05
1.67048e-05
2.69997e-05
-2.2446e-05
2.73889e-05
2.71746e-05
5.30501e-05
1.296e-05
4.13827e-05
3.65683e-05
1.51886e-05
1.66941e-06
2.82463e-06
9.9758e-07
1.63687e-05
0.000352882
0.000590323
0.000430862
0.000346694
0.000350946
0.000389694
0.000196608
0.000195332
9.16687e-07
0.000124062
0.00287912
0.000272432
0.000485853
0.000479483
0.000562833
0.000567494
0.000658467
0.000503393
0.000515097
0.000741252
0.000720655
-0.0139362
0.0144049
0.000892537
-0.0174823
0.000447368
0.0002603
-0.00303452
-0.00404474
-0.0222617
-0.0233304
-0.0385573
0.00973168
0.00331853
0.0185223
-0.00667643
0.0104627
-0.00116328
-0.0118259
0.0107017
-0.000251489
0.007578
-0.00026719
0.0100657
-0.0110739
-0.000908398
-0.000282668
-0.000343785
0.000141358
-0.00121457
0.0079507
-0.000358068
0.000413616
0.000260342
0.000139923
0.00014677
7.63966e-05
6.84937e-05
-9.68777e-05
-0.000110188
3.56034e-05
0.00020539
0.000993368
0.000161795
-2.60303e-05
-8.69179e-05
0.00840863
-0.00977989
8.0812e-05
-0.0181245
2.51386e-05
0.0206977
-0.0178939
5.90786e-06
-0.0201914
3.05513e-05
0.0199709
-7.15284e-06
8.73683e-06
2.04519e-05
4.08808e-05
9.04968e-05
0.000634162
0.00013458
4.98907e-05
2.49076e-05
1.08638e-05
1.02163e-05
9.20945e-06
6.90469e-06
4.45802e-06
0.00471063
7.25171e-06
0.00553206
3.78794e-06
0.00399281
0.00342417
1.24116e-05
0.00311836
0.00179614
4.7251e-05
8.74996e-06
-2.14023e-06
1.12923e-05
3.87725e-06
0.00649291
0.000112901
-0.000270009
0.00480574
-0.000165448
0.000137028
-0.000340285
0.00623105
-0.000187013
-0.000338346
-0.00784616
-0.000148728
0.00895774
-0.000412556
-0.000193461
0.000240839
0.000181173
2.00133e-05
0.0089238
1.64856e-05
0.00891699
3.31857e-05
5.04142e-05
0.0120591
2.5683e-05
0.013996
3.75588e-05
0.000119846
0.0158795
-0.000573942
0.0110686
-0.000360585
-0.000364023
-0.0134155
0.000227715
0.0139982
-0.00111898
0.000235183
-0.000355819
-0.00229911
-0.00586489
1.34549e-05
-0.000902568
-0.000386173
0.000247544
0.000243968
0.0202027
2.08767e-05
-3.67492e-05
-7.40148e-05
-6.51362e-05
-0.000348371
-1.64219e-05
4.82265e-05
4.00695e-05
0.0181291
0.0157808
-1.3096e-05
-1.71364e-06
-4.48605e-05
-0.000106159
-0.000136093
-0.000593294
-0.000204716
-0.000194769
-9.38801e-05
-3.31584e-05
0.0160834
-4.22273e-05
1.96911e-06
1.60372e-05
0.000289296
0.000197734
9.08357e-05
-0.000139837
-3.65119e-05
0.000376402
0.000467606
0.000618867
-8.70581e-05
0.0002693
0.000270577
-0.000501564
0.00238471
0.00529708
-0.0036573
0.0244877
0.00157213
0.00061821
-0.000227859
0.000727419
0.00117139
0.00116554
0.0010324
0.000912304
0.000766219
0.000789712
0.000215576
1.04327e-05
8.86985e-06
-0.00254536
-0.00127912
-0.00266135
-0.0013099
0.000214136
0.000693734
-0.000197162
-0.000161046
0.00408987
0.00488434
0.00013653
1.66916e-05
1.81079e-05
2.58035e-05
1.94766e-05
2.62117e-05
2.84271e-06
-0.000130679
0.00115669
0.00301331
0.000164849
6.1789e-05
1.03892e-05
-2.03429e-06
1.65082e-05
1.72179e-05
1.7221e-05
1.85801e-05
-1.36257e-05
0.000210639
0.000285757
0.000294766
0.000373531
-6.0486e-05
-0.000525053
-0.0132252
0.000541147
-0.0128724
0.0140572
0.000795342
-0.0165647
-0.0171298
0.014449
0.0135278
0.000688254
-0.0156056
-0.0182988
0.0154786
-0.000533564
0.0129289
0.0191932
6.68563e-05
6.38424e-05
-0.000806775
0.00166124
0.00195896
0.00223172
0.00552886
0.0068874
0.0134341
0.0315329
0.00349539
0.0164643
0.0244035
-0.00190561
-0.00108465
0.00109464
0.00130704
-0.000737984
-0.000579199
0.0105894
0.0113558
0.0110993
0.0107692
0.000534539
-0.0138085
-0.0125646
-0.00053575
0.0137545
0.0008006
-0.0177756
-0.0163291
-0.000708409
0.0166978
0.0178013
0.0158192
-0.000681039
-0.000158785
-0.000214975
-2.34859e-05
2.28962e-05
0.000103324
2.38134e-05
2.29704e-05
-3.67026e-05
-1.48078e-05
-0.000220891
0.00220395
-0.000247671
-0.000151905
-0.000347311
-0.000300426
-0.00018691
-0.0003179
-0.000143521
0.00597737
-0.000173071
0.000113679
2.50968e-05
7.53247e-06
0.000271158
0.000236045
-0.00259155
0.0133897
-0.00670033
-0.0241099
-0.0286917
0.00239575
-0.0135525
0.00572075
0.00184251
-0.00839402
-0.00926507
-0.000940593
-0.00139163
0.00910696
0.00842142
-0.000837771
-0.00825911
-0.000170659
0.00820593
-2.89026e-05
8.94814e-05
-3.02221e-06
8.43936e-05
0.000279765
0.000291334
0.000187455
4.74048e-05
3.5977e-05
-6.57381e-05
-5.92885e-05
1.61813e-06
-7.45797e-05
-2.96937e-05
-1.28035e-05
0.000361578
0.000442323
0.000444028
-0.000194389
0.000528689
0.000538971
-0.000427764
0.0226165
-0.00134757
0.00135124
-0.0251041
0.000509789
0.000305868
0.00295814
0.000354651
0.000627914
0.00198467
-0.000155716
-3.22104e-05
-0.000153057
0.000569932
0.00529306
-0.000350131
-0.00022646
-0.000133395
0.000112632
-0.0143625
0.0165047
-0.000589838
2.40906e-05
-0.000750253
-0.00174234
-0.00195011
-0.000361923
-0.000177356
0.00638957
-0.00019533
-0.00021268
-0.000402836
-7.52376e-05
-0.000246591
0.0056723
-0.000376885
-0.000178407
0.000578171
0.000463317
-1.37559e-05
-7.13449e-05
-4.80539e-05
-0.000139058
0.000114251
0.000476504
0.000601597
0.000552928
-0.000633799
0.00187278
0.00190841
0.00209296
0.00222046
0.0244894