/*--------------------------------*- C++ -*----------------------------------*\
| =========                 |                                                 |
| \\      /  F ield         | OpenFOAM: The Open Source CFD Toolbox           |
|  \\    /   O peration     | Version:  2306                                  |
|   \\  /    A nd           | Website:  www.openfoam.com                      |
|    \\/     M anipulation  |                                                 |
\*---------------------------------------------------------------------------*/
FoamFile
{
    version     2.0;
    format      ascii;
    arch        "LSB;label=32;scalar=64";
    class       volScalarField;
    location    "2.7";
    object      gradTz;
}
// * * * * * * * * * * * * * * * * * * * * * * * * * * * * * * * * * * * * * //

dimensions      [0 -1 0 1 0 0 0];

internalField   nonuniform List<scalar> 
5322
(
-0.0626343
-0.0581142
-0.0504709
-0.0545924
-0.0434203
-0.0336484
-0.0254085
-0.0187882
-0.0137867
-0.0103717
-0.00828543
-0.00761156
-0.00551948
-0.00773281
-0.00854587
-0.0070828
-0.00832268
-0.00647345
-0.00957353
-0.0106952
-0.0125097
-0.0142794
-0.0169828
-0.0197121
-0.0234026
-0.0267269
-0.031426
-0.0358727
-0.0415715
-0.0464175
-0.0529558
-0.0587488
-0.065488
-0.0701421
-0.0730426
-0.0637575
-0.0750327
-0.0743172
-0.0765962
-0.0558999
-0.0710139
-0.0733048
-0.0548152
-0.0733438
-0.0726069
-0.0557828
-0.0744112
-0.0703325
-0.0551908
-0.0732053
-0.0834869
-0.0569043
-0.0793242
-0.0706185
-0.0632955
-0.0668654
-0.0825118
-0.0656049
-0.0634702
-0.0667196
-0.0833873
-0.0664856
-0.0634599
-0.0650878
-0.0833862
-0.0688544
-0.0632386
-0.0619042
-0.0817727
-0.0734774
-0.052638
-0.0782038
-0.0744296
-0.0733263
-0.0740323
-0.0736766
-0.0736264
-0.0734331
-0.0745863
-0.0711427
-0.0690135
-0.0555296
-0.0575884
-0.0743465
-0.0482858
-0.0660677
-0.0956008
-0.0617758
-0.0620591
-0.0540055
-0.0668663
-0.048961
-0.0515869
-0.0514592
-0.0658792
-0.0624822
-0.0595415
-0.0633196
-0.0972084
-0.0599778
-0.0606738
-0.0547779
-0.0638221
-0.0651624
-0.07112
-0.0579105
-0.060922
-0.0550731
-0.0439213
-0.0341391
-0.0257861
-0.0190239
-0.0138771
-0.010358
-0.00950893
-0.00872607
-0.00620922
-0.00666658
-0.00928765
-0.00730991
-0.00638472
-0.00763626
-0.00752899
-0.0105315
-0.00788393
-0.0103192
-0.00745851
-0.00778842
-0.0101487
-0.00743771
-0.00763222
-0.010245
-0.00755454
-0.00749289
-0.0102902
-0.00765529
-0.00753384
-0.0105619
-0.00789994
-0.010334
-0.00748529
-0.0064106
-0.00731718
-0.00657757
-0.00622343
-0.00929524
-0.00667195
-0.00663249
-0.00614938
-0.00619474
-0.0093137
-0.00664192
-0.00661729
-0.00615887
-0.00619979
-0.0093078
-0.00664854
-0.00657114
-0.00640291
-0.00855042
-0.00707692
-0.00833949
-0.0105977
-0.0115195
-0.00685804
-0.00958691
-0.00647985
-0.00845512
-0.00558006
-0.00748744
-0.00774729
-0.00720981
-0.00781413
-0.0087694
-0.0074715
-0.0100295
-0.00994967
-0.0107359
-0.0084349
-0.0107244
-0.0126066
-0.0126201
-0.0144657
-0.0112083
-0.014489
-0.0170624
-0.0170741
-0.0198512
-0.01537
-0.0198782
-0.0233694
-0.0233832
-0.0270548
-0.0210522
-0.0271018
-0.0315741
-0.0316105
-0.0361006
-0.0283145
-0.0361889
-0.0416821
-0.041768
-0.0468966
-0.037113
-0.0470425
-0.0534489
-0.053618
-0.0591872
-0.0470786
-0.0594276
-0.0654203
-0.0655931
-0.0632022
-0.0972182
-0.0599659
-0.0597762
-0.0549528
-0.0755091
-0.0753293
-0.0515904
-0.0515142
-0.0657346
-0.0629967
-0.0589745
-0.0640059
-0.0970847
-0.0603443
-0.05972
-0.0550815
-0.062947
-0.0654891
-0.0595016
-0.0596109
-0.054972
-0.0439335
-0.0341786
-0.0258166
-0.0190424
-0.0138872
-0.0103629
-0.00951282
-0.0087325
-0.00619176
-0.0061792
-0.00617471
-0.00618864
-0.00930689
-0.00661621
-0.00664724
-0.00656696
-0.00763302
-0.0109892
-0.00661762
-0.00930933
-0.00664878
-0.0109242
-0.00777347
-0.0101245
-0.00743753
-0.00657008
-0.00763377
-0.0101264
-0.00544501
-0.00743993
-0.00747597
-0.00746766
-0.00781782
-0.00994673
-0.0107398
-0.0126203
-0.0144689
-0.0170797
-0.0198528
-0.0233949
-0.027057
-0.0316316
-0.036102
-0.0418086
-0.046885
-0.0536987
-0.0591259
-0.0660441
-0.0624346
-0.0972483
-0.0635919
-0.0595304
-0.0652775
-0.0595889
-0.0471132
-0.0534471
-0.0471169
-0.0371399
-0.0417141
-0.0362184
-0.0283316
-0.0316045
-0.0271122
-0.0210619
-0.0233921
-0.0198801
-0.0153753
-0.0170822
-0.0144842
-0.0112108
-0.0126269
-0.0107148
-0.00843414
-0.0100443
-0.00785582
-0.010036
-0.0107239
-0.00843528
-0.0099557
-0.00781859
-0.00877198
-0.00719885
-0.00550882
-0.00777118
-0.00709248
-0.0100661
-0.0107384
-0.0126019
-0.0145241
-0.0170883
-0.0199048
-0.0234512
-0.0271225
-0.0317437
-0.036194
-0.0420574
-0.0468756
-0.0542475
-0.0586403
-0.0663905
-0.0628425
-0.0961103
-0.066727
-0.0576594
-0.0711113
-0.0643963
-0.0457601
-0.05794
-0.0506194
-0.03604
-0.0449944
-0.0387283
-0.0274339
-0.0339723
-0.0289288
-0.0203736
-0.0251161
-0.0212052
-0.0148685
-0.0183104
-0.0154514
-0.0108451
-0.0135036
-0.0115219
-0.00816014
-0.0105959
-0.00834231
-0.00855528
-0.00749204
-0.00781103
-0.00691122
-0.00847824
-0.00556823
-0.00636146
-0.00748354
-0.00692473
-0.0102691
-0.0111485
-0.0107674
-0.0107234
-0.00839726
-0.00994298
-0.0101066
-0.00720484
-0.00879071
-0.00798346
-0.0078929
-0.00772445
-0.0105691
-0.00832612
-0.00790281
-0.0108938
-0.00839506
-0.00786897
-0.00773371
-0.00751912
-0.0100455
-0.0107176
-0.00968265
-0.0126356
-0.0144858
-0.0170901
-0.01988
-0.0177575
-0.023411
-0.0270946
-0.0316547
-0.0361493
-0.0319465
-0.0418288
-0.0469315
-0.0536549
-0.0592376
-0.0515361
-0.0516095
-0.0412902
-0.0413277
-0.0321152
-0.0320358
-0.0420299
-0.0469742
-0.0371362
-0.0474557
-0.0533012
-0.0540483
-0.0589542
-0.047046
-0.0602634
-0.0646581
-0.0728026
-0.0611224
-0.0971943
-0.0616509
-0.0585513
-0.0568077
-0.0735317
-0.0488834
-0.0442675
-0.0617072
-0.0387265
-0.0531673
-0.0478414
-0.0300318
-0.0417434
-0.0362098
-0.0227553
-0.0317347
-0.0270171
-0.0168967
-0.0233791
-0.019635
-0.0123264
-0.0170692
-0.0142703
-0.00900412
-0.0124761
-0.0106216
-0.00684308
-0.00961376
-0.00700231
-0.00673749
-0.0088378
-0.00808912
-0.00954301
-0.0114525
-0.0128152
-0.0149641
-0.0174621
-0.0204731
-0.0198629
-0.0199267
-0.0153395
-0.0171212
-0.0171118
-0.0145275
-0.0111844
-0.0144578
-0.0129671
-0.0123479
-0.00919341
-0.0081
-0.0095889
-0.0091303
-0.00874012
-0.0102823
-0.0103313
-0.00827451
-0.00764697
-0.00572815
-0.00946123
-0.00528659
-0.00736339
-0.00820564
-0.00889984
-0.0116296
-0.0138533
-0.01375
-0.0187947
-0.0190775
-0.0158822
-0.0156233
-0.0147911
-0.0179704
-0.0213279
-0.024067
-0.0278706
-0.0326405
-0.0371967
-0.0363127
-0.0362358
-0.0283037
-0.0316965
-0.0317498
-0.0271564
-0.0210247
-0.0271281
-0.0241613
-0.0229704
-0.016926
-0.0149714
-0.0176031
-0.0172811
-0.016519
-0.0128316
-0.0122686
-0.0117573
-0.0130213
-0.0107756
-0.0109003
-0.0119074
-0.0104112
-0.00832404
-0.00762727
-0.0073329
-0.00699402
-0.00756717
-0.00646186
-0.00904934
-0.00897387
-0.0107373
-0.00965759
-0.012627
-0.0126206
-0.0144905
-0.0112144
-0.0144723
-0.0129392
-0.0170844
-0.0170842
-0.0198783
-0.0153834
-0.0198745
-0.0177252
-0.0233975
-0.023416
-0.0270902
-0.0210787
-0.0271136
-0.0240529
-0.0316259
-0.0316737
-0.0361439
-0.0283615
-0.0362266
-0.0319171
-0.0417491
-0.0418856
-0.0469008
-0.0371802
-0.0471448
-0.0412
-0.0534337
-0.0538023
-0.059109
-0.0471186
-0.0595901
-0.0513801
-0.0652734
-0.0658872
-0.0631283
-0.0594256
-0.0631546
-0.0553759
-0.0600971
-0.0579139
-0.0527954
-0.0729219
-0.0487997
-0.0636137
-0.0490397
-0.0469442
-0.0578713
-0.0581684
-0.0516818
-0.0551447
-0.0555535
-0.0501152
-0.0450415
-0.0441332
-0.0339681
-0.0346986
-0.0293952
-0.0259904
-0.0255169
-0.0253306
-0.0187015
-0.0137213
-0.010329
-0.00824613
-0.00756235
-0.00553902
-0.00769246
-0.00680441
-0.00737021
-0.00741427
-0.00726004
-0.00750066
-0.00879346
-0.00655525
-0.00806045
-0.00783792
-0.00790236
-0.00814023
-0.00639526
-0.00803422
-0.00792125
-0.00790525
-0.00879784
-0.00606342
-0.00611029
-0.00610017
-0.00607921
-0.00606077
-0.00602949
-0.00936672
-0.00609095
-0.00607374
-0.00607547
-0.00936917
-0.00610052
-0.00885852
-0.00958994
-0.00954857
-0.00840053
-0.00837714
-0.00782303
-0.00968552
-0.01301
-0.0178343
-0.024184
-0.0320409
-0.0304636
-0.027104
-0.0318018
-0.0312289
-0.0298389
-0.0331161
-0.0381629
-0.0435572
-0.0478427
-0.057358
-0.0468508
-0.0480549
-0.0381805
-0.0439084
-0.0362815
-0.0389013
-0.0395551
-0.033624
-0.0435006
-0.0547651
-0.0681754
-0.0678459
-0.0679424
-0.0588725
-0.0546323
-0.0572024
-0.0628013
-0.0525954
-0.0596832
-0.0853821
-0.077095
-0.0759944
-0.07848
-0.0502865
-0.0638325
-0.0670068
-0.0803076
-0.0517794
-0.0660909
-0.0673004
-0.0806913
-0.0520003
-0.0652673
-0.068152
-0.0805145
-0.0532156
-0.0646965
-0.0725837
-0.100451
-0.079209
-0.077453
-0.0980878
-0.0960433
-0.0765451
-0.0562548
-0.079333
-0.0706767
-0.0632671
-0.0667303
-0.0704784
-0.0552211
-0.0730851
-0.0835294
-0.0568908
-0.0690595
-0.0555615
-0.0576383
-0.0743712
-0.0644589
-0.0490259
-0.0605349
-0.0528518
-0.0398009
-0.0471954
-0.0414911
-0.0307754
-0.0360197
-0.0315273
-0.0232043
-0.0268781
-0.0233645
-0.0170761
-0.019696
-0.0170397
-0.0124579
-0.0143303
-0.0125167
-0.00906756
-0.0107202
-0.0095854
-0.00706054
-0.00846109
-0.00687249
-0.00779404
-0.00747806
-0.00833726
-0.0106039
-0.0115213
-0.00815968
-0.0100823
-0.00707651
-0.00855401
-0.00776338
-0.00550707
-0.00718769
-0.00744363
-0.00877201
-0.00739009
-0.0076217
-0.00832485
-0.0104063
-0.0138198
-0.0138347
-0.018881
-0.0255933
-0.0239188
-0.0230619
-0.0221084
-0.0247852
-0.0290528
-0.0273913
-0.0202992
-0.0217718
-0.0221383
-0.0234479
-0.0234611
-0.0177962
-0.019883
-0.0233804
-0.0210798
-0.0271164
-0.0315967
-0.028357
-0.0362166
-0.0417099
-0.0371591
-0.0470748
-0.0534363
-0.0470824
-0.0593435
-0.0501815
-0.0508671
-0.0613761
-0.0615384
-0.0550031
-0.0434999
-0.0336149
-0.0253363
-0.0187185
-0.0137409
-0.010345
-0.00827561
-0.00759251
-0.0055074
-0.00744205
-0.00738261
-0.00760769
-0.00829406
-0.0103769
-0.0137899
-0.0188025
-0.0254581
-0.0337746
-0.0437037
-0.0551459
-0.0692981
-0.0688311
-0.0556276
-0.105086
-0.077542
-0.0743739
-0.0673591
-0.0806675
-0.052071
-0.0522107
-0.0567355
-0.0833784
-0.0540061
-0.0548321
-0.0559016
-0.0838427
-0.054253
-0.055074
-0.055521
-0.0836623
-0.0557058
-0.0566768
-0.0622885
-0.106256
-0.0801954
-0.0782442
-0.0785961
-0.0779157
-0.0628414
-0.0589369
-0.0625486
-0.105864
-0.0618491
-0.0638776
-0.0833328
-0.0665793
-0.0634174
-0.0649833
-0.0737203
-0.0547786
-0.0729385
-0.0729811
-0.0559081
-0.0741332
-0.0657836
-0.0634373
-0.0664798
-0.0737387
-0.0734906
-0.0741343
-0.0731589
-0.0634804
-0.0626847
-0.0682494
-0.0834827
-0.0715009
-0.0564304
-0.0760973
-0.0668915
-0.056404
-0.0916596
-0.0495625
-0.0650974
-0.054734
-0.0640565
-0.0590612
-0.0466964
-0.0540335
-0.0481647
-0.0383035
-0.0425269
-0.0379783
-0.0290822
-0.0329374
-0.0286324
-0.0224559
-0.02447
-0.0213981
-0.0161084
-0.0180903
-0.0154863
-0.0120095
-0.0130335
-0.0114769
-0.00864833
-0.00965896
-0.00875997
-0.00675466
-0.00748425
-0.00525974
-0.00941225
-0.00679946
-0.00572374
-0.0105388
-0.00752684
-0.00788011
-0.0103006
-0.00746431
-0.00776925
-0.0101298
-0.00742247
-0.00763684
-0.0102349
-0.00756696
-0.0074662
-0.0102736
-0.00555025
-0.00724662
-0.00879094
-0.00749204
-0.00785491
-0.0100163
-0.00842856
-0.0107192
-0.0107186
-0.00964911
-0.0125903
-0.0108321
-0.0144938
-0.0154331
-0.0108979
-0.0182888
-0.0123025
-0.0211481
-0.0149365
-0.025015
-0.0168159
-0.0288381
-0.0202656
-0.0337578
-0.0225981
-0.0384974
-0.0268806
-0.0444179
-0.0295836
-0.0501193
-0.0347237
-0.0568661
-0.0377019
-0.0634865
-0.0435989
-0.069981
-0.0464553
-0.0546746
-0.0666237
-0.0650879
-0.05191
-0.0608292
-0.0450404
-0.0545636
-0.0529639
-0.0412697
-0.0481987
-0.035434
-0.0425713
-0.0414505
-0.0319535
-0.0370599
-0.0270873
-0.032357
-0.0315081
-0.0240843
-0.0278005
-0.020159
-0.0239463
-0.023372
-0.0177607
-0.0203893
-0.0147472
-0.017491
-0.0170901
-0.0129658
-0.0149129
-0.0107612
-0.0128595
-0.0126355
-0.0096834
-0.0110797
-0.0080923
-0.0103135
-0.00993083
-0.00788704
-0.00688832
-0.00634645
-0.00556677
-0.00748185
-0.00779652
-0.00686686
-0.00845283
-0.00703083
-0.00754026
-0.00700575
-0.00734095
-0.0073879
-0.00741638
-0.00876688
-0.00746972
-0.00779371
-0.00781491
-0.0100548
-0.00815575
-0.0115066
-0.00810421
-0.0134922
-0.00899682
-0.0119184
-0.00906464
-0.00899064
-0.00995403
-0.00836946
-0.0109036
-0.00664207
-0.0093022
-0.00661595
-0.00655346
-0.00804429
-0.00789109
-0.00782703
-0.00789994
-0.0079249
-0.0109863
-0.00839715
-0.00785717
-0.00970666
-0.00971358
-0.00970581
-0.012649
-0.0126522
-0.00968197
-0.0118566
-0.00904828
-0.00900805
-0.00995705
-0.00844237
-0.0107484
-0.0126103
-0.0112182
-0.0144884
-0.0170706
-0.0153863
-0.0167237
-0.0130437
-0.0129984
-0.017878
-0.0242408
-0.0241425
-0.0242235
-0.01787
-0.0130382
-0.0129726
-0.0130025
-0.00968223
-0.00965443
-0.0107168
-0.0126051
-0.0134983
-0.0154425
-0.0182925
-0.0211591
-0.0123141
-0.0170481
-0.0108998
-0.0143241
-0.00900908
-0.0125248
-0.00810982
-0.0107161
-0.00905137
-0.00867822
-0.0114625
-0.0107759
-0.0130832
-0.0149092
-0.0129756
-0.0170915
-0.0153018
-0.0198298
-0.0198835
-0.0177739
-0.0233141
-0.0210022
-0.0270355
-0.0270463
-0.0240404
-0.0314322
-0.0281739
-0.0360656
-0.0360809
-0.0318207
-0.0414681
-0.0356434
-0.0468839
-0.0530375
-0.0452591
-0.0593301
-0.0645583
-0.0550487
-0.0611747
-0.0552074
-0.0439493
-0.0341357
-0.0257791
-0.0190187
-0.0138734
-0.0103557
-0.00950609
-0.00872107
-0.00619116
-0.00615113
-0.00618442
-0.00663484
-0.010972
-0.00839359
-0.00839168
-0.010875
-0.0066298
-0.00654543
-0.00806163
-0.00789409
-0.0083206
-0.00789187
-0.010916
-0.00837209
-0.00781829
-0.0100704
-0.00816414
-0.00908427
-0.00894955
-0.00955005
-0.00879567
-0.00607627
-0.00605737
-0.00936874
-0.00602705
-0.00614112
-0.00930692
-0.00895273
-0.0097066
-0.00919182
-0.00771897
-0.0105468
-0.0103417
-0.00789747
-0.00992377
-0.00839195
-0.0107784
-0.0106986
-0.00970233
-0.0126001
-0.0112046
-0.0144645
-0.0129664
-0.017044
-0.0153449
-0.0198481
-0.0198315
-0.0177002
-0.0233512
-0.0202917
-0.0270445
-0.0315039
-0.0272452
-0.0360785
-0.0319659
-0.0241325
-0.017807
-0.0129961
-0.00967765
-0.00894442
-0.00954595
-0.00879061
-0.00880547
-0.0104062
-0.00895883
-0.00908857
-0.00894844
-0.0088071
-0.0104038
-0.00970182
-0.00968194
-0.0130331
-0.0129697
-0.0178642
-0.0177559
-0.0188321
-0.0254983
-0.0338393
-0.033991
-0.0440091
-0.0410633
-0.040013
-0.0509519
-0.0612239
-0.0522534
-0.0746082
-0.0567588
-0.107642
-0.0760989
-0.0746434
-0.0707669
-0.0863365
-0.0783877
-0.0812221
-0.0779915
-0.10697
-0.0751148
-0.074268
-0.0672887
-0.0803127
-0.0519303
-0.0529681
-0.0573426
-0.082925
-0.0537757
-0.05574
-0.0567077
-0.0833812
-0.0540232
-0.0558196
-0.0564867
-0.0831949
-0.0555882
-0.0570648
-0.0791137
-0.0609321
-0.0515985
-0.0514799
-0.0594995
-0.0634294
-0.0456134
-0.0576566
-0.0381821
-0.0456945
-0.0556221
-0.0412657
-0.0526262
-0.0599549
-0.0518201
-0.0640228
-0.0694623
-0.0594846
-0.0556363
-0.0468993
-0.0571014
-0.05529
-0.0711292
-0.0746605
-0.0733159
-0.0648278
-0.0517012
-0.0641974
-0.0566176
-0.0645022
-0.0516401
-0.0641915
-0.0566707
-0.0645781
-0.0517961
-0.064264
-0.0746281
-0.0729733
-0.0635753
-0.0587779
-0.0704279
-0.0838284
-0.0626983
-0.0789585
-0.0801802
-0.077014
-0.0638451
-0.0618468
-0.0622697
-0.105302
-0.0624986
-0.0693166
-0.101648
-0.0808565
-0.0775029
-0.0627116
-0.0617238
-0.0792747
-0.0566568
-0.0564732
-0.0785996
-0.0598824
-0.05528
-0.0550823
-0.0439307
-0.0341475
-0.0257919
-0.0190278
-0.0138794
-0.0103593
-0.00950983
-0.00872692
-0.00602744
-0.00606179
-0.00801581
-0.00782747
-0.00789527
-0.0101173
-0.00777095
-0.00640308
-0.00657337
-0.00730919
-0.00666822
-0.006388
-0.00753039
-0.01055
-0.00788738
-0.0105471
-0.00746831
-0.0103055
-0.00832263
-0.0081423
-0.00789619
-0.0108792
-0.00663129
-0.00663741
-0.00930913
-0.00617037
-0.0061667
-0.00663919
-0.00662706
-0.00653966
-0.00757481
-0.0103665
-0.00758038
-0.0109691
-0.0083916
-0.00839074
-0.00772086
-0.00648603
-0.00756754
-0.00699189
-0.00735298
-0.00762586
-0.00832179
-0.0104188
-0.0138462
-0.0188788
-0.0255612
-0.0339111
-0.043875
-0.0438028
-0.0553646
-0.0554432
-0.0687321
-0.0560903
-0.0595217
-0.0598332
-0.0973022
-0.0691645
-0.0751219
-0.0774831
-0.104804
-0.0554292
-0.0597416
-0.0599045
-0.0564762
-0.0606748
-0.0617287
-0.095615
-0.0639986
-0.0660688
-0.0540353
-0.0620636
-0.0717271
-0.0599917
-0.0509715
-0.0553331
-0.0694076
-0.0692006
-0.0612742
-0.061521
-0.0514795
-0.0398689
-0.0300654
-0.0222527
-0.0162476
-0.0160205
-0.0117457
-0.0117471
-0.00897819
-0.00906744
-0.00961462
-0.0128692
-0.0176019
-0.023857
-0.0316473
-0.0408494
-0.0507155
-0.0499764
-0.0501181
-0.0390648
-0.0296032
-0.0219381
-0.021916
-0.0160144
-0.0162302
-0.0119135
-0.0126194
-0.0135061
-0.0154457
-0.0183037
-0.0211643
-0.0148461
-0.0170878
-0.0145026
-0.0108374
-0.0123654
-0.00968248
-0.00965861
-0.0107157
-0.00837587
-0.0109129
-0.00743543
-0.0078234
-0.00894666
-0.00908564
-0.00928847
-0.00621097
-0.00615268
-0.00807013
-0.00788592
-0.00795222
-0.0080141
-0.00602494
-0.00937151
-0.00801546
-0.00804274
-0.00656233
-0.00814175
-0.00801735
-0.00781831
-0.0078855
-0.00791183
-0.00831699
-0.00789022
-0.00791375
-0.00807053
-0.00814307
-0.00620018
-0.0066679
-0.00730264
-0.00928216
-0.00657248
-0.00639473
-0.00908096
-0.00895553
-0.00954823
-0.00878904
-0.00880591
-0.0089574
-0.00970981
-0.00919435
-0.00811619
-0.0123438
-0.010909
-0.0130032
-0.0129399
-0.0178193
-0.0177166
-0.0198833
-0.023406
-0.0250695
-0.0288392
-0.0338782
-0.0385025
-0.0273362
-0.0316161
-0.027106
-0.0203244
-0.0231544
-0.016905
-0.0149531
-0.022911
-0.0202941
-0.0241557
-0.0240283
-0.0242177
-0.0240836
-0.0320778
-0.0319551
-0.0412903
-0.0412339
-0.0392441
-0.0352486
-0.0415073
-0.0407024
-0.031137
-0.0231924
-0.0169569
-0.0123724
-0.0121955
-0.0119913
-0.013939
-0.0167064
-0.0164082
-0.0191121
-0.0228398
-0.0224223
-0.0191144
-0.0139411
-0.012209
-0.012194
-0.0119873
-0.0104443
-0.0139841
-0.0191724
-0.0259826
-0.0259061
-0.030639
-0.0300555
-0.0342879
-0.0400072
-0.0392025
-0.0440708
-0.0505499
-0.0514605
-0.0514784
-0.07509
-0.0526405
-0.0791606
-0.0608498
-0.0595745
-0.0758867
-0.055468
-0.078299
-0.0794045
-0.0813631
-0.0777222
-0.106183
-0.0750955
-0.069399
-0.0652024
-0.0821858
-0.083068
-0.0617817
-0.0695603
-0.079935
-0.0830124
-0.0767189
-0.0750673
-0.105567
-0.0780588
-0.0816091
-0.0818708
-0.0820817
-0.0816563
-0.0777444
-0.0822441
-0.0732732
-0.0681559
-0.0805184
-0.0532455
-0.05197
-0.0564968
-0.0832167
-0.0555435
-0.0545679
-0.055532
-0.0837058
-0.05561
-0.0548161
-0.0551414
-0.0834898
-0.0568434
-0.0624017
-0.105616
-0.0824768
-0.0772078
-0.0640741
-0.0617695
-0.0786138
-0.0598489
-0.0552698
-0.0440783
-0.034266
-0.0258868
-0.0191002
-0.0139323
-0.0104011
-0.0121983
-0.0123627
-0.0108425
-0.014499
-0.0170717
-0.0148525
-0.0198747
-0.0233859
-0.025054
-0.0288313
-0.0338578
-0.0384918
-0.0226496
-0.0315426
-0.0202771
-0.0268803
-0.0168442
-0.0233768
-0.0149407
-0.0196944
-0.0170562
-0.0163281
-0.021316
-0.0201894
-0.0245922
-0.0277825
-0.0240918
-0.0314963
-0.0281047
-0.0361285
-0.0361092
-0.0319213
-0.0412839
-0.0368274
-0.0468604
-0.0411274
-0.052777
-0.046678
-0.0593108
-0.0594084
-0.0516449
-0.0645982
-0.0566595
-0.0643432
-0.06444
-0.0516738
-0.0592998
-0.0593479
-0.0642654
-0.056603
-0.0597575
-0.0517383
-0.0412471
-0.0320283
-0.0241867
-0.0178496
-0.0130299
-0.0123392
-0.0168977
-0.0178175
-0.0177093
-0.024152
-0.0240173
-0.0270906
-0.0315907
-0.0273454
-0.0361815
-0.0417091
-0.0447484
-0.0500983
-0.0576167
-0.0634422
-0.0381769
-0.0528842
-0.0348955
-0.0472064
-0.0297578
-0.0415121
-0.0269351
-0.0360278
-0.030746
-0.0294076
-0.0378508
-0.0356623
-0.0430697
-0.0478555
-0.0412672
-0.0526296
-0.0465584
-0.0599117
-0.0591029
-0.0517063
-0.0647738
-0.0563264
-0.0640521
-0.0694304
-0.0518292
-0.0594701
-0.0555854
-0.0570596
-0.0552519
-0.0587712
-0.0551326
-0.0468478
-0.0489863
-0.0605437
-0.0644955
-0.0438039
-0.0508402
-0.0407271
-0.0315486
-0.0237809
-0.0175439
-0.0128251
-0.0095813
-0.00754559
-0.00699776
-0.0078024
-0.00687225
-0.00526329
-0.00635431
-0.00749104
-0.00688673
-0.0094264
-0.0057158
-0.00678189
-0.00878815
-0.00797433
-0.00718568
-0.00786813
-0.00994419
-0.008436
-0.0106982
-0.00967737
-0.012596
-0.0111973
-0.0144771
-0.0144481
-0.0129299
-0.0170556
-0.014835
-0.0198553
-0.0162237
-0.0160125
-0.0170608
-0.0117643
-0.0126209
-0.0103425
-0.0103327
-0.00823611
-0.00756294
-0.00738984
-0.00769034
-0.00764301
-0.00737662
-0.00820779
-0.00677368
-0.00875171
-0.00810535
-0.0110745
-0.00969291
-0.0126339
-0.0111698
-0.0144593
-0.0144989
-0.0129928
-0.0170487
-0.0153535
-0.01985
-0.017741
-0.0233176
-0.0209922
-0.027035
-0.0270315
-0.0239967
-0.0314348
-0.0292329
-0.0218327
-0.023325
-0.0187031
-0.0186856
-0.0137299
-0.0118561
-0.0126574
-0.00906057
-0.0101175
-0.00827747
-0.0089258
-0.00968435
-0.010308
-0.010349
-0.0116547
-0.0128914
-0.0138817
-0.011912
-0.0155461
-0.0147569
-0.0204017
-0.0177665
-0.023372
-0.0209327
-0.0270351
-0.0270825
-0.0240851
-0.0314149
-0.0281854
-0.0360769
-0.0318654
-0.0413331
-0.0368246
-0.0468597
-0.0469127
-0.0410904
-0.0527717
-0.0411978
-0.0399498
-0.0305843
-0.0300386
-0.0258952
-0.0191063
-0.0139366
-0.0104046
-0.0119882
-0.012192
-0.0166995
-0.0169399
-0.0130353
-0.0178581
-0.0241986
-0.0310659
-0.0306224
-0.0228279
-0.0224143
-0.016403
-0.016712
-0.0122038
-0.0112105
-0.0126287
-0.00967794
-0.0126142
-0.0144801
-0.0129711
-0.0170569
-0.0170714
-0.0144717
-0.0144777
-0.0129959
-0.0170567
-0.0170991
-0.0145021
-0.0126542
-0.00970227
-0.0126087
-0.0107414
-0.0107073
-0.0107172
-0.0107263
-0.00969624
-0.0126321
-0.0126143
-0.0112078
-0.0144626
-0.0129888
-0.0170765
-0.0170606
-0.0153585
-0.0198404
-0.0177718
-0.0233582
-0.023327
-0.0233238
-0.0233417
-0.0177464
-0.0198631
-0.0198547
-0.0153617
-0.0198567
-0.01778
-0.0233218
-0.0233882
-0.0198871
-0.0153145
-0.017095
-0.0175186
-0.0129755
-0.0144649
-0.0111785
-0.012636
-0.0129028
-0.00969144
-0.01078
-0.0107031
-0.0101094
-0.00786605
-0.00995202
-0.00844169
-0.0100419
-0.00785678
-0.0100261
-0.00843931
-0.00996172
-0.00786141
-0.0100892
-0.0107067
-0.0107587
-0.00839095
-0.00906196
-0.0082023
-0.00755233
-0.00556645
-0.00765852
-0.0072914
-0.00746879
-0.00748275
-0.00554069
-0.00754239
-0.00742605
-0.00728089
-0.0076723
-0.00556824
-0.0103158
-0.00764693
-0.00745693
-0.00654301
-0.00879168
-0.00772665
-0.00749517
-0.00750788
-0.0077098
-0.00720316
-0.0079532
-0.00878196
-0.00638004
-0.00764094
-0.0103073
-0.0074593
-0.0108728
-0.00838764
-0.00970604
-0.00970595
-0.0130349
-0.0178601
-0.0228378
-0.0210129
-0.0270472
-0.0240448
-0.0314298
-0.0314594
-0.0314217
-0.0315454
-0.0240921
-0.0270571
-0.027086
-0.0209514
-0.0233769
-0.0240084
-0.0177674
-0.0198403
-0.0204079
-0.014772
-0.0155625
-0.0180537
-0.0163532
-0.0213378
-0.0246231
-0.0222167
-0.0287974
-0.0329505
-0.0294492
-0.0378912
-0.0431162
-0.0380117
-0.0479564
-0.0484798
-0.0442818
-0.0380817
-0.0343005
-0.029081
-0.0258427
-0.0216733
-0.0190475
-0.0158786
-0.0138948
-0.0119249
-0.0131051
-0.0149107
-0.0107873
-0.0114696
-0.00969766
-0.00869418
-0.0103152
-0.0116614
-0.00892799
-0.00875797
-0.00811375
-0.0103462
-0.00789444
-0.00992579
-0.00839784
-0.00907062
-0.00826571
-0.00764461
-0.00572226
-0.00679471
-0.00942453
-0.00526543
-0.00749928
-0.00677649
-0.00820685
-0.00737763
-0.0063583
-0.00688951
-0.00797068
-0.00719764
-0.00878791
-0.00738967
-0.00755429
-0.00820836
-0.0102985
-0.0103348
-0.0137528
-0.0187538
-0.0253758
-0.024093
-0.0315034
-0.0324407
-0.0277933
-0.0270508
-0.0220255
-0.0161506
-0.0118753
-0.0118272
-0.0136908
-0.0186331
-0.0251762
-0.029525
-0.0281307
-0.03611
-0.0319295
-0.0412844
-0.041545
-0.0413804
-0.0429134
-0.0319555
-0.0361516
-0.0370421
-0.0271772
-0.0226554
-0.0298934
-0.0295447
-0.0389422
-0.0394298
-0.0417351
-0.0447775
-0.0501055
-0.0349226
-0.0391208
-0.0303558
-0.0269566
-0.0320019
-0.0318795
-0.0362087
-0.041221
-0.041184
-0.0470939
-0.0358627
-0.0406013
-0.0320434
-0.0412629
-0.0514075
-0.0505787
-0.0399951
-0.0392019
-0.0300463
-0.0306234
-0.0342765
-0.0343796
-0.0342896
-0.0259083
-0.0228622
-0.0228294
-0.0167016
-0.0164016
-0.0167038
-0.0169351
-0.023147
-0.0203328
-0.0222152
-0.0162465
-0.0160438
-0.0160855
-0.0161642
-0.0117941
-0.0117675
-0.00898971
-0.0090704
-0.00734232
-0.0119236
-0.022023
-0.0219554
-0.0295937
-0.0297026
-0.029899
-0.0391524
-0.0389986
-0.0394742
-0.0299271
-0.0470441
-0.0535405
-0.0456278
-0.0594113
-0.0507724
-0.0500404
-0.0614223
-0.0616304
-0.059944
-0.0718325
-0.0960993
-0.0980422
-0.0562477
-0.0725636
-0.100469
-0.0791909
-0.062858
-0.0778947
-0.0787539
-0.0639751
-0.0622602
-0.106432
-0.0807115
-0.0781029
-0.101367
-0.0867663
-0.0868553
-0.0818857
-0.0794166
-0.0557073
-0.0784844
-0.0596867
-0.0551566
-0.0440717
-0.0400396
-0.0306669
-0.030622
-0.0320818
-0.0319955
-0.0318623
-0.041212
-0.0411623
-0.039105
-0.0303419
-0.0229004
-0.0324146
-0.0370268
-0.0319536
-0.0413734
-0.0367507
-0.0471118
-0.0468368
-0.0411898
-0.0526534
-0.0466519
-0.0527963
-0.0412369
-0.0320209
-0.0306083
-0.0310549
-0.0405874
-0.0358745
-0.0399923
-0.0391972
-0.0300426
-0.0224118
-0.0228263
-0.0178482
-0.0130265
-0.00969957
-0.0126364
-0.0117917
-0.0144726
-0.0090131
-0.0107416
-0.0100507
-0.00742486
-0.00773289
-0.00749316
-0.00549139
-0.00758145
-0.00826478
-0.016047
-0.0161222
-0.0170974
-0.0137677
-0.015868
-0.0180302
-0.0190291
-0.0187727
-0.021658
-0.0239886
-0.0258175
-0.0221862
-0.0287664
-0.0271477
-0.0329106
-0.0290595
-0.0342672
-0.033667
-0.0254013
-0.0219851
-0.0233822
-0.0218769
-0.0233388
-0.0252486
-0.0294693
-0.0315343
-0.0292912
-0.0360781
-0.0334215
-0.0385098
-0.0415258
-0.0380556
-0.0428808
-0.0442424
-0.0379617
-0.0479107
-0.0456561
-0.0555868
-0.048454
-0.0435083
-0.0546835
-0.0642174
-0.063752
-0.0632126
-0.0680234
-0.0647835
-0.0591942
-0.0488387
-0.0531334
-0.0431131
-0.0541506
-0.063706
-0.0691893
-0.0659515
-0.0587244
-0.0482609
-0.0381805
-0.0468972
-0.0413577
-0.0334508
-0.0252705
-0.0431551
-0.0542352
-0.0638711
-0.06954
-0.0660015
-0.0587201
-0.0482069
-0.0381112
-0.0413331
-0.0387226
-0.0296535
-0.0221298
-0.0175159
-0.0128128
-0.00957112
-0.00901172
-0.0125602
-0.0237221
-0.0313975
-0.0404495
-0.0490994
-0.059479
-0.0642271
-0.0707551
-0.0656753
-0.0531187
-0.059327
-0.0643562
-0.0637104
-0.054303
-0.0539496
-0.0429707
-0.0333053
-0.0251547
-0.0186133
-0.0136743
-0.0102868
-0.010284
-0.0082116
-0.00903524
-0.00903244
-0.00742281
-0.0087896
-0.00738026
-0.00763911
-0.0082528
-0.0103157
-0.0118679
-0.0111707
-0.0144431
-0.0145037
-0.0130308
-0.0122011
-0.0119852
-0.00880461
-0.012186
-0.0123587
-0.00918844
-0.00771523
-0.0105411
-0.0105951
-0.00684545
-0.012336
-0.0169305
-0.0167084
-0.0163981
-0.0166882
-0.0228058
-0.0224071
-0.0228332
-0.0178524
-0.0241927
-0.0241995
-0.0320396
-0.039987
-0.0368446
-0.0413732
-0.0318669
-0.0413112
-0.0469251
-0.0411229
-0.0527024
-0.0528274
-0.0468324
-0.0469446
-0.0411946
-0.0526329
-0.0531633
-0.0468276
-0.0367844
-0.0471434
-0.0478737
-0.0357006
-0.0297648
-0.0385823
-0.0336332
-0.0434641
-0.0546204
-0.0551636
-0.0587809
-0.0637479
-0.0632248
-0.0641473
-0.0680458
-0.0647741
-0.0592624
-0.0489229
-0.0429871
-0.0333252
-0.0382934
-0.0293812
-0.0361106
-0.0360709
-0.0361069
-0.0360739
-0.0319351
-0.0414296
-0.0413382
-0.0368465
-0.0468755
-0.0412321
-0.0529098
-0.052785
-0.046692
-0.0592851
-0.0595319
-0.059388
-0.0466248
-0.0514313
-0.0506315
-0.0440893
-0.0441784
-0.0494836
-0.0551557
-0.051614
-0.0515608
-0.0754687
-0.0550847
-0.0521311
-0.0783262
-0.0793171
-0.0819977
-0.077773
-0.0817493
-0.0821193
-0.0789875
-0.0547445
-0.0774137
-0.0579641
-0.0762595
-0.0765996
-0.0762664
-0.0764503
-0.0755452
-0.0646589
-0.0811893
-0.105611
-0.056603
-0.0783716
-0.0860993
-0.0816356
-0.0868781
-0.0813811
-0.0774689
-0.102649
-0.081439
-0.0570587
-0.062494
-0.105929
-0.0619085
-0.0784703
-0.0568078
-0.0768579
-0.0580922
-0.0552829
-0.0495176
-0.0505738
-0.0505838
-0.051393
-0.0505718
-0.0399691
-0.050583
-0.0495618
-0.0392034
-0.039994
-0.0306201
-0.0310418
-0.0320428
-0.0412932
-0.0412547
-0.050588
-0.0517486
-0.0489747
-0.0438303
-0.0711763
-0.0482952
-0.0615937
-0.0650871
-0.0578698
-0.0613473
-0.0668628
-0.0755395
-0.0548391
-0.0519501
-0.0785043
-0.0596907
-0.0580959
-0.0764456
-0.054558
-0.0776032
-0.0790846
-0.0793866
-0.0821858
-0.0734138
-0.0811554
-0.105545
-0.0783625
-0.0816587
-0.0818975
-0.0820109
-0.0822368
-0.0790791
-0.0550781
-0.0776022
-0.0809749
-0.0820617
-0.0809116
-0.0791894
-0.0549124
-0.0777956
-0.0582269
-0.0768534
-0.0770266
-0.0691739
-0.0517718
-0.0517501
-0.0690466
-0.0687169
-0.0491818
-0.0518863
-0.051758
-0.059766
-0.0686867
-0.0689633
-0.0692252
-0.0637778
-0.0762602
-0.0582889
-0.048026
-0.0433085
-0.0335645
-0.0253371
-0.0187263
-0.0137291
-0.0161435
-0.0198858
-0.0198178
-0.0153063
-0.0168976
-0.0231392
-0.0209383
-0.0270136
-0.0270921
-0.024087
-0.0314961
-0.0314377
-0.0270349
-0.021009
-0.0270615
-0.0219405
-0.0186058
-0.0136746
-0.0160969
-0.0160943
-0.0118249
-0.0219449
-0.0251319
-0.0332643
-0.042908
-0.0483874
-0.0594206
-0.0592135
-0.0594165
-0.0483562
-0.0382686
-0.0293699
-0.0281951
-0.0294794
-0.036148
-0.0360704
-0.0281104
-0.0303412
-0.0228964
-0.0405752
-0.0367598
-0.0469134
-0.0469913
-0.0384529
-0.0378793
-0.0290052
-0.0216398
-0.0158576
-0.0116403
-0.00891026
-0.00736647
-0.008196
-0.0103004
-0.0138839
-0.0190264
-0.0220113
-0.0258214
-0.0342155
-0.0441384
-0.048675
-0.0591066
-0.0565009
-0.0588351
-0.0538744
-0.053979
-0.0635217
-0.0691188
-0.065915
-0.0588328
-0.0634392
-0.0689636
-0.0661413
-0.0634258
-0.0700286
-0.0659342
-0.0698472
-0.0391256
-0.0466668
-0.0590629
-0.0465941
-0.0549829
-0.0646077
-0.0784532
-0.0810214
-0.0814302
-0.0860862
-0.0813641
-0.0868505
-0.086851
-0.0867445
-0.0810956
-0.0819027
-0.0865706
-0.102537
-0.0829186
-0.0869718
-0.0933588
-0.0915973
-0.103081
-0.103136
-0.101551
-0.102822
-0.102684
-0.0691227
-0.069179
-0.0495222
-0.0791135
-0.058981
-0.0691149
-0.0765635
-0.028199
-0.0563581
-0.0824946
-0.0241838
-0.0314521
-0.0399935
-0.0302747
-0.023473
-0.0167751
-0.0397677
-0.0231813
-0.0175036
-0.0198437
-0.0170726
-0.0137427
-0.102667