/*--------------------------------*- C++ -*----------------------------------*\
| =========                 |                                                 |
| \\      /  F ield         | OpenFOAM: The Open Source CFD Toolbox           |
|  \\    /   O peration     | Version:  2306                                  |
|   \\  /    A nd           | Website:  www.openfoam.com                      |
|    \\/     M anipulation  |                                                 |
\*---------------------------------------------------------------------------*/
FoamFile
{
    version     2.0;
    format      ascii;
    arch        "LSB;label=32;scalar=64";
    class       volVectorField;
    location    "2.1";
    object      flux;
}
// * * * * * * * * * * * * * * * * * * * * * * * * * * * * * * * * * * * * * //

dimensions      [0 1 -1 1 0 0 0];

internalField   nonuniform List<vector> 
2658
(
(1.00722e-06 9.86703e-07 -8.79121e-06)
(1.47065e-06 5.70494e-07 -8.49167e-06)
(4.74316e-07 1.77623e-07 -6.32051e-06)
(-3.96471e-08 -2.20335e-08 -5.74704e-06)
(-2.08668e-06 -2.05204e-06 -7.12935e-06)
(-1.76423e-06 2.52147e-06 -7.30215e-06)
(1.83574e-06 -2.1418e-06 -6.59698e-06)
(1.81205e-06 1.80326e-06 -6.36306e-06)
(-3.3832e-08 -3.12714e-08 -5.7422e-06)
(2.5032e-06 -1.78631e-06 -7.2805e-06)
(-1.69207e-06 5.53154e-07 -7.25357e-06)
(-1.22604e-06 -4.07081e-06 -5.76222e-06)
(8.14724e-07 2.47261e-06 -7.71005e-06)
(9.71914e-07 2.51504e-06 -7.21212e-06)
(7.44133e-07 2.03529e-06 -7.45961e-06)
(-6.75982e-08 2.09076e-06 -7.67052e-06)
(-3.34246e-08 2.29248e-06 -7.37241e-06)
(-9.90836e-09 2.05827e-06 -7.65309e-06)
(-8.17537e-07 2.08343e-06 -7.45223e-06)
(-1.05757e-06 2.48386e-06 -7.11762e-06)
(-1.00337e-06 2.39358e-06 -7.58334e-06)
(-2.33311e-06 2.0852e-06 -6.8304e-06)
(-2.79387e-06 6.88656e-07 -7.8097e-06)
(2.10143e-06 -4.72695e-07 -5.97256e-06)
(-8.89486e-07 7.71907e-07 -9.3502e-06)
(-1.1026e-06 2.29063e-06 -7.56838e-06)
(-2.37392e-06 -5.0056e-07 -6.76467e-06)
(-3.41891e-07 1.3662e-07 -7.97735e-06)
(-1.73853e-06 1.86852e-06 -8.14452e-06)
(-1.86766e-06 -9.43799e-11 -6.6973e-06)
(-1.73851e-06 -1.86855e-06 -8.14445e-06)
(-2.37397e-06 5.00571e-07 -6.76467e-06)
(-1.10266e-06 -2.29075e-06 -7.56831e-06)
(-2.79403e-06 -6.8864e-07 -7.80962e-06)
(-8.89436e-07 -7.71879e-07 -9.3502e-06)
(2.1014e-06 4.72755e-07 -5.97247e-06)
(-1.14241e-06 -1.40099e-07 -7.67899e-06)
(5.32295e-07 1.95535e-07 -1.0747e-05)
(-2.33271e-06 -2.08584e-06 -6.83031e-06)
(-1.00366e-06 -2.39372e-06 -7.58353e-06)
(-1.05755e-06 -2.48405e-06 -7.11771e-06)
(-8.17493e-07 -2.08351e-06 -7.45224e-06)
(-1.00661e-08 -2.05812e-06 -7.65301e-06)
(7.16576e-08 1.03141e-06 -1.10976e-05)
(-1.41113e-06 -1.59343e-07 -7.0321e-06)
(1.3194e-06 -7.78246e-08 -6.95366e-06)
(-1.69204e-06 -5.53184e-07 -7.2536e-06)
(-6.32986e-08 1.07363e-06 -1.10876e-05)
(-6.78327e-08 -2.09114e-06 -7.67063e-06)
(7.44154e-07 -2.03532e-06 -7.45967e-06)
(9.71965e-07 -2.51486e-06 -7.21205e-06)
(8.14703e-07 -2.47262e-06 -7.71012e-06)
(2.21155e-06 -2.19175e-06 -6.9018e-06)
(-4.70597e-07 4.54591e-07 -1.11354e-05)
(2.48556e-06 -8.17145e-07 -7.71693e-06)
(2.04323e-06 -7.70328e-07 -7.47044e-06)
(-1.0914e-06 5.3268e-08 -1.10884e-05)
(1.00117e-07 -1.33922e-06 -6.98596e-06)
(-3.86638e-06 -1.29299e-11 -6.01805e-06)
(2.06476e-06 -2.11038e-08 -7.66093e-06)
(-1.09134e-06 -5.32342e-08 -1.10885e-05)
(2.04328e-06 7.70296e-07 -7.47053e-06)
(2.48555e-06 8.17195e-07 -7.71699e-06)
(-4.70522e-07 -4.54652e-07 -1.11354e-05)
(5.26155e-07 5.33579e-07 -7.17489e-06)
(-4.07978e-06 -1.18866e-06 -5.77375e-06)
(5.18478e-07 -1.6784e-06 -7.23451e-06)
(-3.74507e-08 -7.52751e-08 -6.51535e-06)
(-1.32154e-06 -2.79255e-06 -7.2239e-06)
(-1.32169e-06 2.79256e-06 -7.22374e-06)
(-5.6873e-08 2.65463e-11 -5.83596e-06)
(1.32029e-06 2.36384e-06 -6.47228e-06)
(-8.61786e-08 -2.55772e-08 -5.00822e-06)
(-1.4283e-06 1.94574e-06 -5.7445e-06)
(2.99596e-08 -5.80831e-09 -4.40425e-06)
(-1.50447e-06 -1.4743e-06 -5.68138e-06)
(1.92791e-06 -1.46143e-06 -5.72862e-06)
(-1.29607e-08 3.90143e-08 -4.39838e-06)
(-1.65595e-06 1.41252e-06 -5.00736e-06)
(1.85038e-06 9.27808e-07 -4.91129e-06)
(-2.21479e-06 -9.78301e-07 -5.7285e-06)
(-4.24214e-08 -6.91607e-08 -5.00626e-06)
(2.37219e-06 1.26056e-06 -6.43973e-06)
(-2.15142e-06 1.89437e-06 -6.618e-06)
(-5.59979e-08 -4.1145e-08 -5.41146e-06)
(-3.36036e-08 -2.3442e-08 -4.12769e-06)
(-5.1093e-09 1.20554e-09 -3.04763e-06)
(6.73912e-09 1.0886e-08 -2.16631e-06)
(9.90414e-09 1.31997e-08 -1.48559e-06)
(9.66786e-09 1.29935e-08 -9.92006e-07)
(7.62095e-09 1.05089e-08 -6.64391e-07)
(-1.77289e-08 -3.22452e-08 -6.2996e-07)
(1.59762e-08 1.68946e-08 -5.36166e-07)
(-1.09493e-07 8.49416e-08 -4.44667e-07)
(7.37114e-08 -3.70025e-08 -4.78365e-07)
(-1.33952e-08 -8.91271e-08 -5.15123e-07)
(-9.1397e-08 -1.54312e-08 -4.69381e-07)
(4.70672e-10 -9.35545e-08 -7.09094e-07)
(9.19355e-08 -1.67074e-08 -4.69717e-07)
(-7.49733e-08 -3.5301e-08 -4.76356e-07)
(4.05319e-08 -1.02488e-07 -7.13029e-07)
(1.04017e-07 -2.72911e-08 -4.82329e-07)
(9.14553e-08 -9.00495e-08 -5.20838e-07)
(7.40777e-08 -4.78568e-08 -5.79864e-07)
(7.71385e-08 -3.99376e-08 -4.90522e-07)
(-1.57181e-07 9.23838e-08 -5.33143e-07)
(-3.01249e-08 -3.31403e-08 -3.81544e-07)
(-2.15434e-08 -8.25113e-10 -6.48875e-07)
(-7.85919e-09 1.23277e-08 -4.15462e-07)
(4.29767e-08 -9.6453e-08 -6.27259e-07)
(9.22744e-08 3.20067e-08 -5.81559e-07)
(3.66967e-08 -4.36135e-08 -4.75371e-07)
(7.32193e-08 -1.71261e-12 -6.5252e-07)
(3.66916e-08 4.36134e-08 -4.75354e-07)
(9.22753e-08 -3.20129e-08 -5.81561e-07)
(4.29735e-08 9.64504e-08 -6.27259e-07)
(7.71433e-08 3.99402e-08 -4.90534e-07)
(-1.57179e-07 -9.23859e-08 -5.33145e-07)
(9.14624e-08 9.00477e-08 -5.20842e-07)
(7.40862e-08 4.78568e-08 -5.7987e-07)
(1.04017e-07 2.72831e-08 -4.82322e-07)
(4.0525e-08 1.02486e-07 -7.12997e-07)
(-7.49774e-08 3.52998e-08 -4.76353e-07)
(9.19375e-08 1.67072e-08 -4.69716e-07)
(-1.46154e-07 -7.28385e-08 -4.63111e-07)
(1.46533e-07 -7.05249e-08 -4.65348e-07)
(-1.0949e-07 -8.49458e-08 -4.44652e-07)
(-1.33929e-08 8.91344e-08 -5.15141e-07)
(-9.13981e-08 1.5436e-08 -4.69381e-07)
(7.3708e-08 3.70086e-08 -4.78379e-07)
(-4.13182e-08 1.0054e-07 -7.10616e-07)
(-1.01459e-07 2.5582e-08 -4.76699e-07)
(-6.92654e-08 4.79959e-08 -5.71227e-07)
(-6.29871e-08 4.37875e-08 -4.73203e-07)
(-4.02546e-08 8.99004e-08 -6.20118e-07)
(4.48439e-09 -4.07481e-08 -4.39316e-07)
(-1.88156e-08 2.96989e-09 -4.25788e-07)
(-1.10782e-07 4.55999e-09 -5.04451e-07)
(8.97328e-08 -9.35475e-08 -4.3561e-07)
(8.96854e-08 9.35687e-08 -4.35625e-07)
(-1.88091e-08 -2.97891e-09 -4.25773e-07)
(4.46253e-09 4.07513e-08 -4.39316e-07)
(4.22567e-08 -2.4232e-08 -4.85573e-07)
(-4.43306e-08 -2.52209e-08 -5.14443e-07)
(-5.09762e-08 -2.30485e-10 -6.46648e-07)
(-4.42266e-08 2.51383e-08 -5.14202e-07)
(2.42947e-08 4.45492e-11 -6.00543e-07)
(3.12706e-08 5.08055e-11 -5.80226e-07)
(-8.91625e-08 -5.01437e-08 -4.12335e-07)
(-9.27771e-08 4.94226e-08 -4.14394e-07)
(-7.7444e-08 1.10115e-10 -3.92193e-07)
(-9.81498e-08 3.95603e-09 -5.55824e-07)
(-9.61053e-08 2.64711e-08 -5.44403e-07)
(-9.94934e-08 -2.97601e-08 -3.48566e-07)
(-7.71968e-08 1.18876e-07 -4.70016e-07)
(-1.36839e-07 2.75249e-08 -4.44069e-07)
(-1.24305e-07 1.11494e-07 -4.02663e-07)
(-5.25686e-08 1.32045e-07 -4.42652e-07)
(-6.01008e-08 1.39919e-07 -4.16561e-07)
(-4.3816e-08 1.10816e-07 -4.33596e-07)
(3.65856e-10 1.11564e-07 -4.47039e-07)
(6.56735e-11 1.28078e-07 -4.26693e-07)
(-6.60423e-10 1.11508e-07 -4.47335e-07)
(4.20457e-08 1.12733e-07 -4.33667e-07)
(5.97578e-08 1.43048e-07 -4.14623e-07)
(5.35153e-08 1.33325e-07 -4.40724e-07)
(1.26648e-07 1.165e-07 -4.02185e-07)
(1.58062e-07 3.75591e-08 -4.61107e-07)
(-3.64835e-08 -7.81439e-09 -6.9028e-07)
(1.02649e-07 2.44358e-08 -5.91015e-07)
(-2.64913e-07 -1.70726e-07 -7.83528e-07)
(3.10449e-07 2.30246e-07 -9.8218e-07)
(-3.76488e-07 -2.60638e-07 -1.20872e-06)
(4.67672e-07 3.37424e-07 -1.48126e-06)
(-5.62997e-07 -4.03528e-07 -1.82304e-06)
(6.97005e-07 4.95211e-07 -2.21493e-06)
(-8.29256e-07 -6.06512e-07 -2.68267e-06)
(1.0087e-06 7.07282e-07 -3.21127e-06)
(-1.18307e-06 -8.7795e-07 -3.81214e-06)
(1.41208e-06 9.72838e-07 -4.48692e-06)
(-1.62644e-06 -1.22613e-06 -5.21436e-06)
(1.91982e-06 1.28605e-06 -6.02295e-06)
(-2.1528e-06 -1.66491e-06 -6.86644e-06)
(2.59785e-06 1.63685e-06 -7.56106e-06)
(-2.59818e-06 1.60098e-06 -7.32099e-06)
(2.76066e-06 1.3419e-06 -7.18637e-06)
(-2.85196e-06 1.27442e-06 -7.25519e-06)
(2.50314e-06 1.78639e-06 -7.28041e-06)
(-2.08678e-06 2.05198e-06 -7.12928e-06)
(-3.96559e-08 2.20123e-08 -5.74695e-06)
(-1.76412e-06 -2.52153e-06 -7.30223e-06)
(5.18386e-07 1.67841e-06 -7.2344e-06)
(-4.0797e-06 1.18856e-06 -5.77375e-06)
(5.26167e-07 -5.33595e-07 -7.17491e-06)
(-1.22605e-06 4.07076e-06 -5.76224e-06)
(4.85891e-07 -4.97853e-07 -9.39881e-06)
(-5.60056e-08 4.11122e-08 -5.41146e-06)
(-3.36062e-08 2.34216e-08 -4.12768e-06)
(-5.13059e-09 -1.2142e-09 -3.04762e-06)
(6.71925e-09 -1.09077e-08 -2.1663e-06)
(9.91371e-09 -1.3219e-08 -1.48558e-06)
(9.67628e-09 -1.29906e-08 -9.9199e-07)
(7.62331e-09 -1.05077e-08 -6.64382e-07)
(-1.77304e-08 3.22454e-08 -6.29965e-07)
(1.59798e-08 -1.68871e-08 -5.36168e-07)
(6.86555e-10 1.02621e-09 -3.64692e-07)
(-3.95774e-08 -3.87231e-08 -3.94418e-07)
(-2.84452e-09 1.42759e-08 -6.29322e-07)
(5.52574e-08 -4.98349e-08 -4.05164e-07)
(5.52557e-08 4.98338e-08 -4.05164e-07)
(-3.95809e-08 3.87269e-08 -3.94421e-07)
(6.8978e-10 -1.02988e-09 -3.6469e-07)
(-2.83302e-09 -1.42799e-08 -6.29325e-07)
(1.79844e-08 -1.49148e-08 -3.76967e-07)
(1.46536e-07 7.05319e-08 -4.65341e-07)
(-1.46162e-07 7.28369e-08 -4.63112e-07)
(1.0109e-08 -9.01345e-08 -5.14185e-07)
(1.12622e-07 8.28855e-08 -4.47946e-07)
(-1.05811e-08 1.98096e-08 -5.37373e-07)
(3.60904e-09 -2.35062e-09 -3.67343e-07)
(-1.66429e-08 -1.34203e-08 -3.75943e-07)
(1.60355e-10 1.28237e-08 -5.47831e-07)
(1.53629e-09 -1.11445e-08 -6.27835e-07)
(1.52501e-08 -1.14725e-08 -6.28062e-07)
(1.02113e-08 -5.44748e-13 -6.38693e-07)
(1.52498e-08 1.14703e-08 -6.28058e-07)
(-1.05973e-08 -1.98275e-08 -5.37371e-07)
(-3.01202e-08 3.31388e-08 -3.81538e-07)
(-7.23937e-08 -6.33946e-08 -4.11197e-07)
(-2.15394e-08 8.29937e-10 -6.48876e-07)
(1.60061e-08 -7.01264e-08 -4.37541e-07)
(1.60069e-08 7.0133e-08 -4.37541e-07)
(-7.23962e-08 6.33971e-08 -4.11195e-07)
(-3.05104e-09 7.28726e-14 -5.62756e-07)
(4.53258e-08 -4.40886e-08 -3.99617e-07)
(-5.38812e-08 -4.8363e-08 -4.02768e-07)
(-5.38874e-08 4.83672e-08 -4.02762e-07)
(9.30671e-10 -1.36384e-08 -6.28757e-07)
(4.53322e-08 4.40906e-08 -3.99614e-07)
(-9.63912e-10 -6.57137e-09 -5.24673e-07)
(-9.77321e-09 -7.61888e-13 -4.95468e-07)
(-1.28506e-08 -3.48402e-08 -4.86111e-07)
(-1.18732e-08 -1.56074e-08 -4.51108e-07)
(5.31749e-08 4.5501e-08 -5.11432e-07)
(-1.20862e-08 -1.18586e-08 -4.88835e-07)
(-3.90939e-09 3.94171e-12 -5.08867e-07)
(-8.8356e-08 2.7947e-12 -7.02725e-07)
(1.07256e-08 -1.27286e-12 -5.77634e-07)
(-3.6638e-08 -6.88393e-08 -4.24091e-07)
(5.71641e-08 4.85159e-08 -6.01033e-07)
(5.9679e-08 1.33649e-07 -4.43816e-07)
(1.31677e-07 -3.27356e-08 -3.84605e-07)
(9.33834e-08 1.06193e-07 -4.69361e-07)
(-2.48942e-07 -1.44165e-07 -5.03134e-07)
(1.67833e-07 1.75796e-07 -7.43745e-07)
(-2.81918e-07 -1.95129e-07 -8.24793e-07)
(-2.81903e-07 1.95119e-07 -8.2479e-07)
(-7.01569e-09 2.58679e-08 -5.93769e-07)
(-2.95062e-07 2.34524e-07 -1.03451e-06)
(6.38531e-09 1.66699e-08 -7.20674e-07)
(3.39051e-07 -2.99957e-07 -1.26361e-06)
(-4.28468e-07 3.58127e-07 -1.56119e-06)
(4.89907e-09 9.46426e-09 -1.08541e-06)
(5.14142e-07 -4.46409e-07 -1.90052e-06)
(-6.35178e-07 5.40352e-07 -2.32403e-06)
(8.12161e-10 1.45852e-09 -1.60864e-06)
(7.58955e-07 -6.52265e-07 -2.79759e-06)
(-9.18043e-07 7.88803e-07 -3.35778e-06)
(-7.02714e-09 -1.22504e-08 -2.30838e-06)
(1.082e-06 -9.21456e-07 -3.97949e-06)
(-1.27646e-06 1.10916e-06 -4.67622e-06)
(-2.16055e-08 -4.36162e-08 -3.19195e-06)
(1.49481e-06 -1.25171e-06 -5.45084e-06)
(-1.69488e-06 1.50464e-06 -6.26691e-06)
(-4.14981e-08 -1.22913e-07 -4.24573e-06)
(2.05385e-06 -1.63253e-06 -7.14182e-06)
(-2.09964e-06 1.96798e-06 -8.19382e-06)
(-1.15122e-07 -3.42408e-07 -5.62071e-06)
(3.20258e-06 -2.1702e-06 -8.62249e-06)
(5.20947e-07 -1.00838e-06 -5.93723e-06)
(3.73411e-06 -2.2515e-06 -7.58643e-06)
(3.73409e-06 2.25153e-06 -7.5864e-06)
(-3.41831e-07 -1.36546e-07 -7.97723e-06)
(8.25069e-07 -6.19982e-07 -7.99671e-06)
(-3.00467e-07 1.17195e-06 -7.19702e-06)
(1.18863e-06 1.04539e-06 -6.67699e-06)
(6.0328e-08 -1.0378e-11 -9.58614e-06)
(-7.55503e-07 -7.41107e-07 -6.39003e-06)
(-7.55505e-07 7.41115e-07 -6.39008e-06)
(8.21356e-07 7.74142e-07 -6.44039e-06)
(-4.1161e-08 -6.10207e-12 -9.60079e-06)
(-9.69323e-07 -9.32788e-07 -6.52417e-06)
(-9.6931e-07 9.32789e-07 -6.52419e-06)
(2.59132e-07 3.77411e-07 -6.1904e-06)
(-3.10293e-07 -4.17773e-12 -9.46067e-06)
(-1.36782e-06 -2.4334e-06 -7.87086e-06)
(-1.36783e-06 2.43337e-06 -7.87084e-06)
(4.57682e-07 -1.52121e-06 -9.01931e-06)
(1.93566e-06 1.55769e-11 -1.27536e-05)
(4.57693e-07 1.52117e-06 -9.01934e-06)
(7.34782e-07 -1.18707e-06 -9.16361e-06)
(2.11455e-06 7.53598e-07 -1.26061e-05)
(8.90068e-07 1.73665e-06 -9.12997e-06)
(1.21332e-06 1.20985e-06 -1.061e-05)
(1.57918e-06 1.57554e-06 -9.24877e-06)
(-2.36385e-06 -2.34406e-06 -9.03914e-06)
(-1.37542e-06 1.66264e-06 -7.48716e-06)
(1.35545e-06 2.19687e-07 -8.74335e-06)
(8.84082e-07 1.40663e-07 -1.01282e-05)
(-2.46751e-09 2.19631e-08 -9.46567e-06)
(2.59142e-07 -3.77422e-07 -6.1904e-06)
(-1.55881e-07 -1.37425e-07 -5.90822e-06)
(-4.00121e-07 -3.90708e-07 -9.33035e-06)
(1.65302e-06 -1.34253e-06 -7.51836e-06)
(-1.20648e-06 7.31216e-07 -9.16679e-06)
(7.47416e-07 2.0865e-06 -1.26065e-05)
(1.73663e-06 8.87924e-07 -9.1358e-06)
(9.92634e-07 9.94665e-07 -1.01394e-05)
(-5.25782e-07 -5.12206e-07 -9.23018e-06)
(-7.07497e-07 1.23082e-11 -9.3285e-06)
(-5.25756e-07 5.12235e-07 -9.23013e-06)
(-4.00142e-07 3.9071e-07 -9.33035e-06)
(-1.37539e-06 -1.66265e-06 -7.48715e-06)
(-2.36382e-06 2.34401e-06 -9.03917e-06)
(8.90083e-07 -1.73681e-06 -9.12973e-06)
(2.11462e-06 -7.53703e-07 -1.26062e-05)
(7.34834e-07 1.18704e-06 -9.16352e-06)
(1.35546e-06 -2.19728e-07 -8.74347e-06)
(8.84097e-07 -1.40672e-07 -1.01282e-05)
(9.92761e-07 -9.94563e-07 -1.01394e-05)
(1.73649e-06 -8.87991e-07 -9.13618e-06)
(7.47295e-07 -2.08647e-06 -1.26063e-05)
(-1.20649e-06 -7.31252e-07 -9.16691e-06)
(1.65297e-06 1.34251e-06 -7.51834e-06)
(2.0475e-07 -1.3645e-06 -8.73505e-06)
(1.49782e-06 -5.01879e-07 -9.07914e-06)
(-3.80472e-08 -1.9315e-06 -1.27631e-05)
(-1.56379e-06 -4.42554e-07 -9.03169e-06)
(2.42085e-06 1.26522e-06 -7.89559e-06)
(-3.85571e-08 3.02457e-07 -9.47439e-06)
(-4.31715e-07 -2.93035e-07 -6.18787e-06)
(-2.49291e-06 1.37525e-06 -7.87912e-06)
(-4.55161e-08 -2.75752e-07 -9.01309e-06)
(-2.91893e-07 -3.3427e-07 -9.11238e-06)
(1.73535e-08 5.34963e-09 -5.7407e-06)
(1.43474e-08 -1.56717e-08 -4.39405e-06)
(7.00687e-09 -3.05203e-08 -3.25076e-06)
(4.04168e-09 -3.1918e-08 -2.31362e-06)
(2.36201e-09 -2.80183e-08 -1.58816e-06)
(7.73685e-10 -2.30174e-08 -1.061e-06)
(-3.20265e-10 -1.76981e-08 -7.1063e-07)
(-6.17796e-09 -1.9934e-08 -7.00529e-07)
(2.67595e-07 -1.60852e-07 -7.6319e-07)
(-2.89451e-07 -1.36948e-07 -7.53609e-07)
(2.91714e-07 -1.23343e-07 -7.55991e-07)
(-2.62955e-07 -1.8824e-07 -7.60424e-07)
(3.00684e-07 2.60455e-07 -9.34505e-07)
(-3.87731e-07 -2.94955e-07 -1.15436e-06)
(4.62694e-07 3.86036e-07 -1.40746e-06)
(-5.81189e-07 -4.57485e-07 -1.74198e-06)
(6.95971e-07 5.67129e-07 -2.10646e-06)
(-8.52596e-07 -6.89918e-07 -2.566e-06)
(1.01418e-06 8.09143e-07 -3.05642e-06)
(-1.21077e-06 -1.00504e-06 -3.65216e-06)
(1.42609e-06 1.11063e-06 -4.27206e-06)
(-1.65583e-06 -1.41253e-06 -5.00738e-06)
(1.9278e-06 1.46152e-06 -5.72851e-06)
(-2.15136e-06 -1.89442e-06 -6.61806e-06)
(-3.38095e-08 3.1206e-08 -5.74211e-06)
(1.81206e-06 -1.8032e-06 -6.36308e-06)
(1.8355e-06 2.14195e-06 -6.5969e-06)
(1.32054e-06 -2.36389e-06 -6.47243e-06)
(-1.0361e-06 2.17244e-06 -5.71959e-06)
(2.94212e-08 -8.68966e-12 -4.49568e-06)
(-1.0359e-06 -2.17241e-06 -5.71965e-06)
(9.85565e-07 1.83521e-06 -4.92988e-06)
(1.36149e-06 -1.64972e-06 -4.99695e-06)
(1.35008e-06 1.33836e-06 -4.85056e-06)
(-1.1112e-06 -1.08855e-06 -4.19412e-06)
(-1.08007e-06 1.43899e-06 -4.28152e-06)
(3.95264e-08 1.03601e-08 -3.24097e-06)
(9.67693e-07 9.56656e-07 -3.55316e-06)
(6.77614e-09 4.6426e-08 -3.23593e-06)
(1.42624e-06 -1.11052e-06 -4.27216e-06)
(-2.25444e-08 -5.23603e-08 -3.7813e-06)
(-1.6347e-06 -7.35372e-07 -4.25847e-06)
(1.59308e-06 -8.41157e-07 -4.24235e-06)
(-3.62336e-09 4.65274e-08 -3.30454e-06)
(-1.35404e-06 7.5511e-07 -3.6162e-06)
(1.25182e-06 8.25072e-07 -3.61358e-06)
(-1.49576e-06 -9.4049e-07 -4.26487e-06)
(-3.34757e-09 -5.79202e-08 -3.78436e-06)
(-1.84994e-06 1.05784e-06 -4.94745e-06)
(-7.12096e-09 3.22119e-08 -4.48107e-06)
(2.1488e-06 -1.09809e-06 -5.68587e-06)
(-2.38757e-06 1.40131e-06 -6.51005e-06)
(-1.27769e-08 -5.38046e-08 -5.82172e-06)
(-2.85196e-06 -1.27441e-06 -7.25517e-06)
(-9.09704e-08 -1.57177e-08 -6.52159e-06)
(1.31939e-06 7.78315e-08 -6.9537e-06)
(-6.33032e-08 -1.07366e-06 -1.10876e-05)
(2.04793e-07 1.36446e-06 -8.73508e-06)
(-2.49294e-06 -1.37529e-06 -7.87905e-06)
(-4.31695e-07 2.9301e-07 -6.18785e-06)
(7.71499e-08 9.93803e-08 -9.13317e-06)
(-3.31756e-08 -1.3387e-08 -6.89374e-06)
(-2.77512e-08 -1.11272e-11 -6.042e-06)
(-2.36542e-08 1.96759e-08 -5.66647e-06)
(-1.45661e-08 -2.99317e-09 -4.34814e-06)
(-7.35385e-09 -1.9718e-08 -3.21635e-06)
(-3.36986e-09 -2.36183e-08 -2.28847e-06)
(-1.40727e-09 -2.18741e-08 -1.57021e-06)
(-5.13751e-10 -1.85154e-08 -1.04874e-06)
(-4.43283e-12 -1.42033e-08 -7.02297e-07)
(1.53845e-09 1.11438e-08 -6.27835e-07)
(1.62035e-10 -1.2824e-08 -5.47827e-07)
(-1.66348e-08 1.34188e-08 -3.75944e-07)
(9.25654e-10 1.36295e-08 -6.28752e-07)
(3.60733e-09 2.35443e-09 -3.67336e-07)
(1.12621e-07 -8.28901e-08 -4.47947e-07)
(1.01017e-08 9.0137e-08 -5.14186e-07)
(-4.50294e-09 -5.98611e-08 -7.3122e-07)
(-1.36755e-07 4.63298e-08 -5.61896e-07)
(1.21201e-07 2.70178e-08 -5.58946e-07)
(-1.21525e-07 2.24581e-08 -5.56018e-07)
(1.31911e-07 5.71245e-08 -5.66839e-07)
(-5.51012e-08 4.07044e-08 -5.30735e-07)
(2.48373e-07 -1.15893e-08 -4.09767e-07)
(-7.00396e-08 -1.4921e-07 -5.96749e-07)
(1.78743e-07 2.57449e-07 -7.60615e-07)
(1.49018e-08 -4.65655e-10 -6.97238e-07)
(-2.47021e-07 -3.04768e-07 -9.51391e-07)
(-2.48242e-07 2.45909e-07 -8.96161e-07)
(2.17777e-07 -1.98288e-07 -7.4057e-07)
(8.02361e-09 -1.95049e-08 -6.8926e-07)
(-2.07157e-09 2.4198e-09 -7.41921e-07)
(-2.60464e-08 7.02844e-08 -5.85381e-07)
(6.59461e-10 7.12959e-08 -5.87829e-07)
(2.952e-08 7.07845e-08 -5.85097e-07)
(5.92284e-08 4.45576e-08 -5.70554e-07)
(7.64688e-08 5.04762e-08 -5.53271e-07)
(-3.9576e-09 4.13162e-10 -7.49534e-07)
(8.91685e-09 1.8483e-08 -7.55601e-07)
(3.19408e-08 2.42271e-08 -6.20419e-07)
(1.56153e-09 2.76612e-09 -7.44356e-07)
(-9.46483e-09 -2.69802e-08 -1.11535e-06)
(-8.3439e-09 -2.52943e-09 -1.13558e-06)
(-1.55096e-08 -1.02177e-08 -1.11686e-06)
(-2.60085e-08 -1.98615e-08 -1.67038e-06)
(-2.29502e-08 -1.99799e-08 -1.71175e-06)
(1.03265e-08 1.04234e-08 -1.40051e-06)
(1.20874e-08 1.2981e-08 -9.22676e-07)
(5.27763e-09 1.5686e-08 -8.971e-07)
(-3.13992e-07 2.25353e-07 -9.25309e-07)
(3.38445e-07 1.98244e-07 -9.29596e-07)
(-4.30968e-07 -2.17263e-07 -1.14421e-06)
(4.34039e-07 -1.89672e-07 -1.14424e-06)
(-2.64076e-09 1.52865e-08 -8.47441e-07)
(-3.43686e-07 1.79216e-07 -9.25051e-07)
(-1.92504e-10 -2.19194e-08 -7.0616e-07)
(9.28257e-11 6.57701e-09 -7.45642e-07)
(3.09541e-10 -2.4869e-08 -1.11582e-06)
(6.6528e-10 -5.55448e-08 -1.68723e-06)
(-1.61403e-08 -5.61765e-08 -1.68502e-06)
(-2.41071e-08 -9.33292e-08 -2.47118e-06)
(-4.27891e-08 -4.15803e-08 -2.50813e-06)
(-4.02998e-08 -3.23261e-08 -2.43484e-06)
(-5.95087e-08 -4.89465e-08 -3.42681e-06)
(-7.32798e-08 -7.6075e-08 -3.54438e-06)
(1.31371e-09 -2.38907e-11 -2.9952e-06)
(7.83556e-09 6.92277e-09 -2.08291e-06)
(8.56749e-09 1.60433e-08 -2.02747e-06)
(-7.3092e-07 4.76339e-07 -2.09649e-06)
(7.81506e-07 4.33199e-07 -2.09353e-06)
(-9.52511e-07 -5.17641e-07 -2.54343e-06)
(9.58248e-07 -4.47846e-07 -2.53508e-06)
(-8.29632e-09 3.16149e-08 -1.90329e-06)
(-7.97569e-07 3.78184e-07 -2.09252e-06)
(6.52462e-07 -2.95399e-07 -1.72384e-06)
(-5.24053e-09 2.30775e-08 -1.28211e-06)
(-5.30334e-07 2.60672e-07 -1.39614e-06)
(-5.38913e-10 -2.63322e-08 -1.06261e-06)
(5.20701e-07 2.95613e-07 -1.39942e-06)
(-6.48093e-07 -3.41314e-07 -1.72726e-06)
(1.77626e-09 2.4355e-08 -1.2852e-06)
(-4.85459e-07 3.26619e-07 -1.39833e-06)
(4.00564e-07 -2.47625e-07 -1.15244e-06)
(1.73958e-09 1.6362e-08 -8.49358e-07)
(4.36487e-10 2.91902e-09 -9.45493e-07)
(-9.66988e-09 -9.19819e-09 -9.05598e-07)
(-2.95026e-07 -2.34489e-07 -1.03451e-06)
(9.58635e-09 2.79695e-09 -5.8207e-07)
(2.21407e-07 2.0477e-07 -8.63614e-07)
(9.41053e-09 -2.79048e-08 -5.05283e-07)
(-2.49667e-07 -1.6686e-07 -6.8159e-07)
(-1.29973e-07 -3.4963e-08 -3.98524e-07)
(4.67275e-08 -1.47721e-08 -5.0697e-07)
(-1.28688e-08 -3.4096e-09 -6.03451e-07)
(-4.65076e-10 5.56323e-09 -6.23117e-07)
(-2.03429e-09 1.56364e-08 -5.90868e-07)
(3.86239e-09 2.79099e-08 -6.10445e-07)
(-4.90125e-09 2.69529e-08 -6.10034e-07)
(4.73791e-09 -6.13953e-08 -7.28544e-07)
(-3.01652e-08 2.51767e-08 -6.35859e-07)
(-4.74722e-08 4.43137e-08 -5.68568e-07)
(-3.02082e-08 2.73987e-08 -5.68747e-07)
(1.16045e-08 2.32011e-09 -7.54962e-07)
(-1.55909e-08 1.2648e-08 -7.40616e-07)
(-1.50358e-08 1.45032e-08 -9.36172e-07)
(-6.80979e-09 1.48435e-08 -8.95713e-07)
(1.03924e-08 -2.72071e-08 -1.11e-06)
(1.91995e-08 -5.70424e-08 -1.6777e-06)
(2.98804e-08 -9.57298e-08 -2.46367e-06)
(9.3199e-10 -9.50672e-08 -2.47737e-06)
(9.32549e-10 -1.54797e-07 -3.50268e-06)
(-3.51361e-08 -1.47763e-07 -3.49026e-06)
(-5.52213e-08 -2.41724e-07 -4.74621e-06)
(-1.27739e-07 -1.46689e-07 -4.82985e-06)
(-8.57605e-08 -7.30033e-08 -4.64585e-06)
(-1.58695e-07 -1.44055e-07 -6.04903e-06)
(-2.85817e-07 -3.42386e-07 -6.38827e-06)
(-5.77915e-08 -5.04383e-08 -5.53202e-06)
(-1.45548e-08 -1.55459e-08 -4.15024e-06)
(7.47594e-09 6.04554e-09 -4.06056e-06)
(-1.49572e-06 9.40503e-07 -4.26478e-06)
(1.593e-06 8.41259e-07 -4.24226e-06)
(-1.84999e-06 -1.05779e-06 -4.94745e-06)
(1.85041e-06 -9.2766e-07 -4.91124e-06)
(-2.26086e-08 5.23688e-08 -3.78133e-06)
(-1.6346e-06 7.35406e-07 -4.25843e-06)
(1.35963e-06 -6.55643e-07 -3.59895e-06)
(-1.31599e-08 4.10503e-08 -2.73394e-06)
(-1.16172e-06 5.36017e-07 -3.04021e-06)
(-1.84245e-09 -4.15371e-08 -2.34263e-06)
(1.13575e-06 6.1565e-07 -3.03636e-06)
(-1.35405e-06 -7.55062e-07 -3.6162e-06)
(-2.92644e-10 4.44836e-08 -2.73784e-06)
(-1.0649e-06 6.79948e-07 -3.04558e-06)
(8.83593e-07 -5.68456e-07 -2.54729e-06)
(1.20364e-09 3.36619e-08 -1.90714e-06)
(5.65359e-10 5.83997e-09 -2.10992e-06)
(8.10055e-10 4.3144e-09 -1.42592e-06)
(-1.18488e-08 -1.31688e-08 -1.36218e-06)
(-4.28453e-07 -3.58085e-07 -1.56117e-06)
(5.24619e-09 1.71315e-09 -8.79455e-07)
(3.39059e-07 2.99959e-07 -1.26358e-06)
(6.4023e-09 -1.6673e-08 -7.20673e-07)
(2.42954e-08 -5.59689e-09 -7.33251e-07)
(-3.94308e-07 -2.99215e-07 -1.23196e-06)
(4.53284e-07 3.85125e-07 -1.51485e-06)
(-5.83602e-07 -4.5439e-07 -1.84794e-06)
(-5.83595e-07 4.54404e-07 -1.84791e-06)
(-1.43384e-09 1.01852e-08 -1.31785e-06)
(6.85933e-07 -5.70785e-07 -2.24866e-06)
(7.85696e-09 6.78143e-09 -1.63574e-06)
(-8.53362e-07 6.724e-07 -2.7131e-06)
(-1.26952e-09 4.36704e-09 -1.92047e-06)
(9.98023e-07 -8.21347e-07 -3.24696e-06)
(-1.06921e-09 8.54479e-09 -2.34488e-06)
(-1.20381e-06 9.59325e-07 -3.85101e-06)
(-2.06785e-10 -9.44307e-09 -2.70307e-06)
(1.3988e-06 -1.13671e-06 -4.5204e-06)
(-2.60454e-08 7.6957e-09 -3.23584e-06)
(-1.61278e-06 1.31605e-06 -5.26689e-06)
(9.31823e-09 -5.11839e-08 -3.66447e-06)
(1.90246e-06 -1.50371e-06 -6.04285e-06)
(-1.11424e-07 -6.18737e-09 -4.28868e-06)
(-2.00019e-06 1.73539e-06 -6.95404e-06)
(6.1337e-08 -1.98554e-07 -4.77707e-06)
(2.58598e-06 -1.84948e-06 -7.62495e-06)
(-4.37963e-07 -1.53017e-07 -5.50475e-06)
(-2.04109e-06 2.10036e-06 -9.00434e-06)
(-2.74335e-07 -3.95728e-11 -7.25479e-06)
(-2.04105e-06 -2.10037e-06 -9.00434e-06)
(5.20938e-07 1.00822e-06 -5.93724e-06)
(3.20262e-06 2.17032e-06 -8.62234e-06)
(-1.15092e-07 3.42265e-07 -5.62067e-06)
(-2.09953e-06 -1.9679e-06 -8.19383e-06)
(-8.72279e-08 -2.17522e-08 -4.76907e-06)
(2.05376e-06 1.63248e-06 -7.14172e-06)
(-4.14818e-08 1.22828e-07 -4.24569e-06)
(-1.69487e-06 -1.50456e-06 -6.26688e-06)
(-4.45862e-08 -6.61148e-09 -3.68301e-06)
(1.49488e-06 1.25186e-06 -5.45079e-06)
(-2.15666e-08 4.3528e-08 -3.19196e-06)
(-1.27626e-06 -1.10904e-06 -4.67624e-06)
(-2.00788e-08 -3.07122e-09 -2.71857e-06)
(1.08205e-06 9.21571e-07 -3.97947e-06)
(-6.98718e-09 1.21401e-08 -2.30835e-06)
(-9.18003e-07 -7.88769e-07 -3.3578e-06)
(-7.62189e-09 -8.72943e-10 -1.92985e-06)
(7.58956e-07 6.5231e-07 -2.79751e-06)
(8.53693e-10 -1.50715e-09 -1.60863e-06)
(-6.35155e-07 -5.40315e-07 -2.32405e-06)
(-2.15747e-10 6.31645e-10 -1.32114e-06)
(5.14148e-07 4.46439e-07 -1.90047e-06)
(4.93532e-09 -9.45528e-09 -1.0854e-06)
(1.44399e-08 -5.43295e-09 -1.10423e-06)
(-2.15326e-08 -2.08949e-08 -1.40188e-06)
(-1.99435e-08 -1.42414e-08 -9.43607e-07)
(-1.68334e-08 -5.34998e-09 -6.56952e-07)
(7.4118e-08 3.59574e-08 -5.35396e-07)
(5.83496e-09 -1.76595e-11 -5.11671e-07)
(-3.38868e-08 -1.00429e-12 -5.71672e-07)
(-4.7567e-08 -3.51186e-11 -7.74051e-07)
(-5.73819e-08 3.18535e-12 -1.1262e-06)
(-7.1822e-08 3.03945e-11 -1.66524e-06)
(-9.07296e-08 5.43064e-11 -2.41499e-06)
(-1.03795e-07 1.08312e-10 -3.3877e-06)
(-8.00854e-08 3.70029e-10 -4.57621e-06)
(3.00155e-08 1.21847e-10 -5.93143e-06)
(1.72086e-07 -3.50814e-11 -7.15684e-06)
(-1.63044e-07 -1.16818e-10 -8.11764e-06)
(-1.32899e-06 6.28957e-07 -8.01983e-06)
(-1.32899e-06 -6.29048e-07 -8.01983e-06)
(-1.37137e-06 -8.76695e-07 -7.47971e-06)
(-1.13298e-06 -8.43023e-07 -8.68508e-06)
(-4.05743e-07 -2.45452e-07 -7.02542e-06)
(-1.49751e-07 -4.54933e-07 -6.25889e-06)
(-6.14877e-07 -1.41629e-06 -8.43851e-06)
(1.00189e-06 4.18404e-06 -5.88399e-06)
(1.62514e-06 -3.77385e-07 -7.08449e-06)
(3.00973e-08 3.11995e-08 -6.52569e-06)
(7.56705e-09 -1.48685e-08 -6.69649e-06)
(9.58285e-08 -2.76121e-08 -6.50202e-06)
(-4.37905e-07 1.53025e-07 -5.50473e-06)
(2.58584e-06 1.84959e-06 -7.62485e-06)
(6.13989e-08 1.98443e-07 -4.77701e-06)
(-2.00018e-06 -1.73532e-06 -6.95405e-06)
(-1.84339e-07 -1.37827e-11 -5.60772e-06)
(-6.0555e-08 -1.39634e-11 -5.76932e-06)
(-5.97108e-08 -1.61053e-11 -4.4095e-06)
(9.41643e-09 5.1163e-08 -3.6644e-06)
(-1.61277e-06 -1.31603e-06 -5.26693e-06)
(1.90241e-06 1.50374e-06 -6.04271e-06)
(-1.11423e-07 6.18337e-09 -4.28874e-06)
(-1.89026e-09 -2.10563e-08 -5.25689e-06)
(-1.76658e-08 -2.33649e-08 -3.97014e-06)
(-2.60902e-08 -7.72329e-09 -3.23583e-06)
(1.39862e-06 1.13673e-06 -4.5203e-06)
(-1.50865e-10 9.41624e-09 -2.70304e-06)
(-1.20373e-06 -9.59342e-07 -3.85109e-06)
(-3.30143e-08 1.53374e-11 -3.15538e-06)
(-5.1992e-08 -1.83683e-12 -3.26007e-06)
(-4.20864e-08 -6.67121e-12 -2.32119e-06)
(-3.13443e-08 -9.59321e-12 -1.59568e-06)
(-1.39899e-09 -1.02321e-08 -1.31783e-06)
(6.85925e-07 5.708e-07 -2.24858e-06)
(-8.53362e-07 -6.72394e-07 -2.71317e-06)
(9.97987e-07 8.21401e-07 -3.24688e-06)
(-1.06609e-09 -8.51983e-09 -2.34482e-06)
(-1.84175e-08 -2.14431e-08 -2.881e-06)
(-1.52945e-08 -1.75051e-08 -2.01345e-06)
(1.86333e-09 -9.16271e-12 -1.679e-06)
(1.14667e-09 -5.43559e-12 -1.12292e-06)
(-1.1908e-10 1.58572e-12 -7.56245e-07)
(-1.20444e-08 -1.12281e-12 -7.22833e-07)
(-7.01281e-09 -2.58779e-08 -5.93773e-07)
(2.88692e-07 2.58384e-07 -1.0204e-06)
(1.75618e-08 -2.76314e-12 -7.03862e-07)
(2.88714e-07 -2.58391e-07 -1.0204e-06)
(2.42759e-08 5.60492e-09 -7.33248e-07)
(-3.94287e-07 2.99228e-07 -1.23195e-06)
(-2.61763e-09 1.52333e-08 -8.82422e-07)
(4.53331e-07 -3.85134e-07 -1.5149e-06)
(1.44591e-08 5.42769e-09 -1.10424e-06)
(-1.185e-08 1.31591e-08 -1.36219e-06)
(-2.09149e-08 3.37761e-12 -1.06976e-06)
(-2.60997e-09 -1.52655e-08 -8.824e-07)
(6.27209e-09 8.22423e-12 -1.03449e-06)
(-9.66575e-09 9.19457e-09 -9.05596e-07)
(-1.28653e-08 3.40893e-09 -6.03454e-07)
(-2.49678e-07 1.66866e-07 -6.81588e-07)
(9.41156e-09 2.78868e-08 -5.05289e-07)
(2.21404e-07 -2.04767e-07 -8.63633e-07)
(4.67202e-08 1.47748e-08 -5.06982e-07)
(1.67825e-07 -1.75793e-07 -7.43747e-07)
(-3.66375e-08 6.88463e-08 -4.24085e-07)
(-2.48951e-07 1.44166e-07 -5.0313e-07)
(2.10576e-08 5.94473e-12 -5.3704e-07)
(9.33847e-08 -1.06188e-07 -4.69369e-07)
(1.31677e-07 3.27436e-08 -3.84605e-07)
(5.96719e-08 -1.33658e-07 -4.43813e-07)
(1.58068e-07 -3.7561e-08 -4.61106e-07)
(5.71665e-08 -4.85124e-08 -6.01043e-07)
(2.03855e-08 -5.36837e-09 -4.76171e-07)
(-4.96477e-08 -3.02361e-08 -4.51122e-07)
(2.78489e-08 -1.57424e-08 -5.30678e-07)
(-1.20883e-08 1.18573e-08 -4.8883e-07)
(-1.28456e-08 3.4837e-08 -4.861e-07)
(5.31732e-08 -4.55072e-08 -5.11436e-07)
(-1.18801e-08 1.56124e-08 -4.51064e-07)
(8.08728e-09 -4.71745e-08 -5.24073e-07)
(3.6767e-10 3.48775e-08 -4.9141e-07)
(4.45792e-10 -1.66364e-12 -5.04534e-07)
(3.64388e-10 -3.48778e-08 -4.91405e-07)
(9.83371e-11 -1.73621e-08 -4.51556e-07)
(4.68771e-10 9.35515e-08 -7.09081e-07)
(8.08959e-09 4.71754e-08 -5.24084e-07)
(-9.59308e-10 6.57613e-09 -5.24679e-07)
(2.78496e-08 1.57468e-08 -5.3068e-07)
(-7.86534e-09 -1.23258e-08 -4.15462e-07)
(-4.96505e-08 3.0238e-08 -4.51119e-07)
(2.03874e-08 5.3669e-09 -4.7617e-07)
(2.92774e-10 6.74991e-09 -5.25067e-07)
(1.58273e-08 -3.34172e-08 -4.83461e-07)
(1.35029e-08 -1.43869e-08 -4.49374e-07)
(-8.58814e-09 4.70667e-08 -5.25143e-07)
(-5.21894e-08 4.3913e-08 -5.10585e-07)
(1.58027e-08 -1.00728e-08 -4.87123e-07)
(-2.77067e-08 1.1439e-08 -5.18677e-07)
(5.19046e-08 6.39456e-08 -3.93478e-07)
(1.58255e-07 -9.11054e-08 -5.28723e-07)
(-9.22374e-08 8.6584e-08 -5.26917e-07)
(3.1237e-08 -1.1694e-08 -7.02948e-07)
(1.43096e-08 2.42339e-13 -4.92671e-07)
(8.0716e-09 5.12191e-12 -5.58225e-07)
(7.27592e-09 3.39574e-12 -6.26647e-07)
(9.31476e-10 -9.57281e-13 -6.32725e-07)
(-2.17273e-10 4.02744e-13 -5.68774e-07)
(-1.28115e-10 -2.50401e-12 -7.54948e-07)
(-7.29874e-10 -6.2976e-13 -1.12129e-06)
(-1.65239e-09 4.28531e-12 -1.67742e-06)
(-3.74959e-09 -4.27679e-12 -2.44294e-06)
(2.19632e-09 -3.64617e-12 -2.44465e-06)
(2.97561e-09 1.61379e-11 -3.43362e-06)
(7.12e-09 1.34505e-11 -4.63929e-06)
(1.96932e-08 -7.84916e-12 -6.05361e-06)
(-1.48474e-07 -1.35261e-11 -8.8055e-06)
(-3.93882e-07 1.1125e-12 -8.10286e-06)
(1.60416e-06 -5.20261e-11 -1.20883e-05)
(-3.00461e-07 -1.17201e-06 -7.19698e-06)