/*--------------------------------*- C++ -*----------------------------------*\
| =========                 |                                                 |
| \\      /  F ield         | OpenFOAM: The Open Source CFD Toolbox           |
|  \\    /   O peration     | Version:  2306                                  |
|   \\  /    A nd           | Website:  www.openfoam.com                      |
|    \\/     M anipulation  |                                                 |
\*---------------------------------------------------------------------------*/
FoamFile
{
    version     2.0;
    format      ascii;
    arch        "LSB;label=32;scalar=64";
    class       volScalarField;
    location    "2.1";
    object      gradTx;
}
// * * * * * * * * * * * * * * * * * * * * * * * * * * * * * * * * * * * * * //

dimensions      [0 -1 0 1 0 0 0];

internalField   nonuniform List<scalar> 
2658
(
0.00860871
0.0125697
0.00405398
-0.000338864
-0.0178348
-0.0150789
0.0156901
0.0154876
-0.000289162
0.0213949
-0.0144622
-0.0104789
0.00696345
0.00830696
0.00636011
-0.000577763
-0.00028568
-8.46868e-05
-0.0069875
-0.00903905
-0.00857583
-0.0199411
-0.0238792
0.0179609
-0.00760245
-0.00942392
-0.0202899
-0.00292215
-0.0148592
-0.0159629
-0.014859
-0.0202903
-0.00942447
-0.0238806
-0.00760202
0.0179607
-0.00976422
0.00454953
-0.0199377
-0.00857825
-0.00903888
-0.00698712
-8.60347e-05
0.000612458
-0.0120609
0.0112769
-0.0144619
-0.000541013
-0.000579766
0.00636029
0.00830739
0.00696327
0.0189021
-0.00402219
0.0212441
0.0174635
-0.00932821
0.000855705
-0.033046
0.0176475
-0.00932766
0.0174639
0.021244
-0.00402155
0.00449705
-0.0348699
0.00443143
-0.000320091
-0.0112952
-0.0112965
-0.000486094
0.0112846
-0.000736569
-0.0122077
0.000256065
-0.0128588
0.0164779
-0.000110775
-0.0141534
0.0158152
-0.0189298
-0.000362576
0.0202751
-0.0183882
-0.000478615
-0.00028721
-4.36693e-05
5.75993e-05
8.46508e-05
8.26313e-05
6.51363e-05
-0.000151529
0.000136549
-0.000935842
0.000630012
-0.000114489
-0.000781171
4.02284e-06
0.000785774
-0.000640797
0.000346427
0.000889036
0.000781669
0.000633143
0.000659304
-0.00134342
-0.000257478
-0.000184132
-6.71725e-05
0.000367323
0.00078867
0.000313647
0.000625806
0.000313603
0.000788678
0.000367295
0.000659344
-0.00134341
0.00078173
0.000633216
0.000889033
0.000346367
-0.000640832
0.00078579
-0.00124918
0.00125241
-0.000935808
-0.000114469
-0.00078118
0.000629983
-0.000353147
-0.000867173
-0.000592012
-0.000538351
-0.000344056
3.83281e-05
-0.000160817
-0.000946858
0.000766947
0.000766542
-0.000160762
3.81413e-05
0.000361169
-0.000378894
-0.000435694
-0.000378005
0.000207647
0.00026727
-0.000762073
-0.000792967
-0.000661915
-0.000838887
-0.000821413
-0.000850371
-0.000659802
-0.00116956
-0.00106244
-0.000449305
-0.000513682
-0.000374496
3.12698e-06
5.61312e-07
-5.64464e-06
0.000359365
0.000510751
0.000457396
0.00108247
0.00135095
-0.000311825
0.000877344
-0.00226422
0.00265341
-0.00321784
0.0039972
-0.00481194
0.00595731
-0.00708766
0.00862137
-0.0101117
0.0120691
-0.0139012
0.0164088
-0.0184
0.0222039
-0.0222067
0.0235954
-0.0243757
0.0213943
-0.0178358
-0.00033894
-0.0150779
0.00443065
-0.0348692
0.00449715
-0.0104791
0.00415291
-0.000478681
-0.000287232
-4.38512e-05
5.74295e-05
8.47326e-05
8.27033e-05
6.51565e-05
-0.000151542
0.00013658
5.86799e-06
-0.000338269
-2.43121e-05
0.000472286
0.000472271
-0.000338298
5.89556e-06
-2.42139e-05
0.000153713
0.00125244
-0.00124925
8.64016e-05
0.000962585
-9.04366e-05
3.08465e-05
-0.000142247
1.37056e-06
1.31307e-05
0.000130343
8.72759e-05
0.00013034
-9.05755e-05
-0.000257438
-0.000618749
-0.000184097
0.000136804
0.000136811
-0.000618771
-2.60773e-05
0.0003874
-0.000460523
-0.000460576
7.95445e-06
0.000387455
-8.23856e-06
-8.35317e-05
-0.000109834
-0.000101481
0.000454486
-0.000103301
-3.34136e-05
-0.000755179
9.16719e-05
-0.000313145
0.000488582
0.000510077
0.00112544
0.000798148
-0.00212771
0.00143447
-0.00240955
-0.00240943
-5.99631e-05
-0.0025219
5.45753e-05
0.00289787
-0.00366212
4.18724e-05
0.00439437
-0.00542887
6.94155e-06
0.0064868
-0.00784652
-6.0061e-05
0.00924785
-0.0109099
-0.000184663
0.0127762
-0.0144862
-0.000354685
0.0175542
-0.0179457
-0.000983952
0.0273725
0.00445254
0.0319155
0.0319153
-0.00292164
0.00705188
-0.0025681
0.0101592
0.000515624
-0.00645729
-0.0064573
0.00702014
-0.000351804
-0.00828481
-0.0082847
0.00221481
-0.00265208
-0.0116908
-0.0116909
0.00391181
0.0165441
0.00391191
0.00628019
0.0180731
0.00760742
0.0103703
0.0134972
-0.0202038
-0.0117558
0.0115851
0.00755626
-2.10898e-05
0.00221489
-0.00133232
-0.00341984
0.0141284
-0.0103118
0.00638817
0.014843
0.00848405
-0.00449386
-0.00604698
-0.00449364
-0.00342002
-0.0117555
-0.0202036
0.00760755
0.0180737
0.00628063
0.0115851
0.00755639
0.00848514
0.0148418
0.00638714
-0.0103119
0.0141279
0.00175
0.0128019
-0.00032519
-0.0133658
0.0206911
-0.000329548
-0.00368987
-0.021307
-0.000389026
-0.00249481
0.000148321
0.000122627
5.98878e-05
3.45442e-05
2.01881e-05
6.61269e-06
-2.73731e-06
-5.28031e-05
0.00228713
-0.00247394
0.00249328
-0.00224747
0.00256995
-0.00331394
0.00395465
-0.00496743
0.00594847
-0.00728715
0.00866817
-0.0103485
0.0121888
-0.0141524
0.016477
-0.0183877
-0.00028897
0.0154877
0.0156881
0.0112867
-0.00885555
0.000251463
-0.00885381
0.00842363
0.0116367
0.0115392
-0.00949742
-0.00923138
0.000337833
0.00827088
5.79157e-05
0.0121901
-0.000192687
-0.0139718
0.0136161
-3.09689e-05
-0.011573
0.0106993
-0.0127842
-2.86117e-05
-0.0158115
-6.08629e-05
0.0183658
-0.0204066
-0.000109204
-0.0243758
-0.000777525
0.0112769
-0.000541053
0.00175036
-0.0213072
-0.0036897
0.0006594
-0.000283552
-0.00023719
-0.000202173
-0.000124497
-6.28535e-05
-2.88022e-05
-1.2028e-05
-4.39103e-06
-3.78874e-08
1.31492e-05
1.38491e-06
-0.000142177
7.91157e-06
3.08318e-05
0.000962569
8.63396e-05
-3.84867e-05
-0.00116885
0.00103591
-0.00103867
0.00112744
-0.00047095
0.00212285
-0.000598629
0.00152771
0.000127366
-0.00211129
-0.00212172
0.00186134
6.85778e-05
-1.77057e-05
-0.000222619
5.63642e-06
0.000252308
0.000506225
0.000653579
-3.38256e-05
7.62124e-05
0.000272998
1.33464e-05
-8.0896e-05
-7.13154e-05
-0.00013256
-0.000222294
-0.000196155
8.82603e-05
0.000103311
4.5108e-05
-0.00268369
0.0028927
-0.00368349
0.00370974
-2.25706e-05
-0.00293749
-1.64534e-06
7.93382e-07
2.64565e-06
5.68615e-06
-0.000137951
-0.000206044
-0.000365719
-0.000344443
-0.000508621
-0.000626323
1.12283e-05
6.69706e-05
7.32264e-05
-0.00624718
0.00667954
-0.00814112
0.00819016
-7.09087e-05
-0.00681682
0.0055766
-4.47909e-05
-0.00453277
-4.6061e-06
0.00445044
-0.00553926
1.51817e-05
-0.00414922
0.00342362
1.48682e-05
3.73066e-06
-8.26486e-05
-0.00252159
8.19346e-05
0.00189237
8.04318e-05
-0.00213391
-0.00111088
0.00039938
-0.000109989
-3.97501e-06
-1.73871e-05
3.30119e-05
-4.18911e-05
4.0495e-05
-0.000257822
-0.000405746
-0.00025819
9.91837e-05
-0.000133255
-0.000128511
-5.82034e-05
8.88236e-05
0.000164099
0.000255388
7.96573e-06
7.97051e-06
-0.000300308
-0.000471977
-0.00109178
-0.000732996
-0.00135637
-0.00244288
-0.000493945
-0.0001244
6.38969e-05
-0.012784
0.0136154
-0.0158119
0.0158155
-0.000193236
-0.013971
0.0116208
-0.000112478
-0.00992923
-1.57475e-05
0.00970729
-0.0115731
-2.50123e-06
-0.00910169
0.00755208
1.02876e-05
4.83212e-06
6.92355e-06
-0.000101272
-0.00366199
4.48392e-05
0.00289794
5.47205e-05
0.000207653
-0.00337015
0.00387422
-0.00498805
-0.00498799
-1.2255e-05
0.00586268
6.71535e-05
-0.00729369
-1.08506e-05
0.00853011
-9.13853e-06
-0.010289
-1.76739e-06
0.0119556
-0.00022261
-0.0137844
7.9643e-05
0.0162604
-0.000952343
-0.0170956
0.000524248
0.0221024
-0.00374327
-0.0174452
-0.00234474
-0.0174449
0.00445247
0.0273728
-0.000983691
-0.0179447
-0.000745538
0.0175535
-0.000354545
-0.0144861
-0.000381078
0.0127767
-0.00018433
-0.0109082
-0.000171613
0.00924833
-5.97195e-05
-0.00784618
-6.51444e-05
0.0064868
7.29652e-06
-0.00542868
-1.84399e-06
0.00439443
4.21822e-05
0.000123418
-0.000184039
-0.000170457
-0.000143875
0.000633487
4.98714e-05
-0.000289631
-0.000406556
-0.000490443
-0.000613863
-0.000775467
-0.000887141
-0.000684491
0.000256542
0.00147082
-0.00139354
-0.0113589
-0.0113589
-0.0117212
-0.00968357
-0.00346789
-0.00127993
-0.00525536
0.00856316
0.0138901
0.000257242
6.46756e-05
0.000819047
-0.00374278
0.0221012
0.000524777
-0.0170955
-0.00157554
-0.000517564
-0.000510349
8.04823e-05
-0.0137844
0.0162599
-0.000952335
-1.61561e-05
-0.00015099
-0.000222993
0.011954
-1.28944e-06
-0.0102883
-0.000282174
-0.000444376
-0.000359713
-0.0002679
-1.19572e-05
0.0058626
-0.0072937
0.00852981
-9.11191e-06
-0.000157414
-0.000130722
1.59259e-05
9.80059e-06
-1.01778e-06
-0.000102943
-5.99385e-05
0.00246745
0.000150101
0.00246764
0.000207487
-0.00336997
-2.23729e-05
0.00387462
0.000123582
-0.000101282
-0.00017876
-2.23074e-05
5.36076e-05
-8.26132e-05
-0.00010996
-0.002134
8.04407e-05
0.00189235
0.000399318
0.0014344
-0.000313141
-0.00212778
0.000179979
0.00079816
0.00112545
0.000510016
0.00135101
0.000488602
0.000174235
-0.000424339
0.000238025
-0.000103319
-0.000109792
0.000454472
-0.000101539
6.9122e-05
3.14248e-06
3.81018e-06
3.11443e-06
8.40488e-07
4.00659e-06
6.91418e-05
-8.19922e-06
0.000238031
-6.72251e-05
-0.000424363
0.000174251
2.50234e-06
0.000135276
0.000115409
-7.34029e-05
-0.000446063
0.000135066
-0.00023681
0.000443629
0.00135261
-0.000788353
0.000266983
0.000122304
6.8988e-05
6.21873e-05
7.96134e-06
-1.85704e-06
-1.095e-06
-6.23824e-06
-1.4123e-05
-3.20478e-05
1.87719e-05
2.54325e-05
6.08547e-05
0.000168318
-0.00126901
-0.00336652
0.0137108
-0.00256804
0.00705199
-0.0151945
-0.00702637
-0.00702569
-0.0151955
-0.00772863
8.60889e-06
-0.0136576
0.022934
0.00156374
-0.000940256
-0.0166066
-0.00155025
0.00973184
-0.0073129
-0.0159071
-0.0131286
-0.0136152
-0.00923756
0.000883776
0.00194595
0.000885612
0.000249168
-0.0129142
0.000886039
-0.00772782
-0.0136579
9.26991e-06
0.00441538
0.00156425
-0.0166067
-0.00093998
0.00207856
-0.000329452
0.0206914
-0.0133663
-0.000324697
0.0128028
0.00101306
-0.00057517
0.00194659
0.00157265
-0.00431955
0.00441567
0.00307891
0.000176874
-0.00151514
-0.000574577
-0.000189032
0.00101249
-0.00189121
-2.1185e-05
-0.0013322
0.000659403
-0.000283628
-0.000777792
-0.000306089
-6.45527e-05
-5.81327e-06
2.96848e-05
-0.0172354
0.0183658
-0.0204074
0.0202758
-0.000363459
-0.0189293
-6.06485e-05
-0.000279482
0.00063011
0.000389839
-0.000190262
-0.000144339
-0.000110278
-8.32917e-05
6.07582e-05
0.00514932
-7.93917e-05
-0.000102947
-0.00318306
0.000150823
-0.00318027
0.00377315
0.000210275
-0.00469113
-0.00472908
0.00384499
0.000110394
0.00572554
0.000283596
-0.00670744
-0.00681948
0.00010649
0.00827159
0.000336789
-0.00923009
-0.00949805
5.82533e-05
0.0115396
0.000255759
-0.0122067
-0.0128604
-0.000109933
0.000807648
0.00141655
0.00461635
-0.000250912
-0.000277561
-0.00013024
-0.000454521
0.00300589
0.00317542
0.00405303
0.00216534
0.00130493
0.00082269
0.000515297
0.000292361
1.34162e-05
-0.00011043
-0.000218148
-0.00228961
0.000188563
-0.00228867
0.00273104
0.000258174
-0.00340483
-0.00340585
0.00273204
0.00014049
0.000109357
7.4062e-05
-2.91615e-05
1.01897e-05
-0.000153951
-0.000195515
0.00194558
-0.000194852
0.00121061
0.000153958
-0.00146934
-0.00147055
0.00121203
-0.000122122
0.000609799
-0.00012072
-0.000121563
0.000872527
-9.90278e-05
0.000610357
-0.000599389
0.00212349
-0.000470652
0.00186126
0.000127306
-0.00212125
-0.00211246
0.00152947
-0.000153862
-2.91529e-05
-3.99011e-06
-2.74547e-06
8.18902e-05
-0.00226426
-5.27251e-05
-0.00268387
1.50034e-05
-0.00368374
-4.52798e-06
-0.00453269
-4.47504e-05
0.00557707
-0.00496802
0.000110388
-0.00472871
-0.00469226
0.00020984
0.00384496
-0.00318268
-0.00318109
0.00015041
0.00255264
0.000101317
0.00395527
-0.00331456
0.00371
-0.00293752
-2.25555e-05
0.0025706
6.8605e-05
-0.00224805
0.00249349
-1.67255e-06
0.00289287
-0.00247408
0.00228714
-0.0011689
-1.73371e-05
0.00103595
1.67227e-05
-0.00103877
1.02308e-05
0.00112785
0.000722109
-0.000374479
3.18585e-06
4.04426e-05
-4.17597e-05
3.30168e-05
0.00027291
0.000653596
0.000633609
-0.00014393
-0.000170477
-3.37475e-05
-0.00013268
-0.000184794
-0.000228747
-0.000222381
-0.000344265
-0.000289888
-0.000288182
-0.000227854
6.6873e-05
-0.00027791
-0.000281258
-0.000507893
-0.000733349
-6.09526e-06
-1.5659e-06
0.000413323
0.000412911
-0.00135815
-0.011722
-0.00969225
-0.00347181
0.0222037
0.000109944
-0.0222061
0.000257373
-0.0120606
-0.000454478
-0.00038897
-0.00249477
0.000148461
0.000122596
6.00315e-05
3.44941e-05
2.01934e-05
6.6171e-06
4.48291e-05
-0.00321795
-7.47896e-05
-0.00414928
1.51303e-05
-0.00553951
-7.94069e-06
-0.00681717
-7.08159e-05
0.00819047
-0.00728788
0.000106191
-0.00681905
-0.00670888
0.000283591
0.00572505
0.00567749
-0.000301534
0.00410695
0.000334288
-0.00487239
-0.00487347
0.00410804
-0.000301376
0.00567637
-0.000123076
0.00052796
0.000302618
0.00013913
0.000362571
-0.000122056
-0.000258423
-0.000659092
-0.000854828
-0.000635585
-0.000343979
-0.000538535
-0.000592246
-0.000788127
-0.000867301
-0.000353169
-0.000513624
-0.000449321
0.000267317
-0.00106264
-0.00116998
-0.000405803
-0.000222718
5.62866e-06
0.000252197
0.000510707
0.00035933
-3.85768e-05
-5.57055e-06
4.1937e-07
-0.000592796
0.000877394
-0.0011109
-0.000311905
0.000457566
0.00108225
0.000505913
1.3525e-05
7.60483e-05
0.000103156
0.00265345
4.51529e-05
0.00342368
-8.10147e-05
-7.07118e-05
8.7829e-05
0.00399707
-0.00481256
-7.92024e-05
-0.0062479
1.04169e-05
0.00755198
-0.00814129
-1.5738e-05
-0.00992969
-0.000112663
0.0116208
-0.0103489
0.00866904
-0.000143853
7.83765e-05
-0.00910215
-2.71322e-06
0.00970777
-2.88418e-05
-1.2068e-05
-4.38676e-06
2.12826e-08
3.77707e-06
7.09507e-06
4.76817e-06
-0.000130574
-0.000157123
-3.71047e-06
-3.62422e-06
-1.53142e-05
-2.85439e-05
0.0145578
2.87409e-05
-7.74285e-06
-5.74639e-05
0.0186845
0.000109867
-0.000334204
-0.000210978
-0.00014395
-0.000100798
-6.93849e-05
-4.27667e-05
-0.000152861
0.00244543
0.00178728
0.00178628
0.00244672
-0.000152814
-4.27555e-05
-6.95162e-05
-0.000217997
0.00377444
-0.000110199
-8.74651e-05
9.94365e-05
0.000292692
0.000515444
-0.000122905
-6.81229e-05
-0.000102574
-8.31684e-05
6.1101e-05
0.00514943
-0.000138413
-0.000195099
6.63816e-05
0.00595743
-0.00708793
-8.30595e-05
0.00862153
-0.010112
-6.6209e-05
0.0120694
-0.013902
2.97847e-05
-0.0172356
-5.72839e-05
0.0186831
-0.0184012
-0.000745198
0.0164084
-0.000381735
-0.000493518
-0.000125026
1.06477e-05
-0.000364164
-0.000206679
-0.000301871
-0.000622154
-0.000473123
-0.00108433
-0.00127951
-0.00244811
-0.00525813
0.00856261
-0.00976387
0.00454771
-0.0136155
-0.0159069
-0.00731284
0.00973203
-0.00155061
0.000612119
0.0138896
-0.000129372
0.0235955
-0.000202227
-0.000124503
-6.30122e-05
-6.82198e-05
-0.000134289
-8.0128e-06
-1.59364e-05
-0.000150891
-1.54874e-05
-0.000210937
9.94286e-05
0.000150324
-0.00014396
-0.000100696
-0.000402344
0.00826624
0.00598827
0.000377245
-0.00669413
-0.0066952
0.00598955
-0.00040242
0.00826527
-0.000114681
1.48413e-05
0.000318051
-6.89978e-05
0.000146066
0.000239638
0.000635353
-4.82368e-05
0.0116346
0.00842522
-0.000533666
-7.35391e-05
-0.000294096
0.00237685
-0.000144861
0.0070202
-0.000203046
6.47163e-05
0.000819274
0.00307785
0.0101596
-0.00432008
0.000176462
-0.00151496
-0.00923703
0.0229335
-0.0131282
0.000884096
-0.000189271
-0.000908506
0.00415296
0.00085528
0.00180906
0.00421906
0.000102614
-0.000736751
0.00180834
0.0125688
0.00861153
0.0218159
0.0120633
0.0176481
0.0195834
-0.000320204
0.00225523
0.00135697
0.000848101
-0.000114464
0.000822179
0.00130508
-4.76635e-05
-0.000533875
0.000240658
1.4902e-05
0.000255312
0.000164203
8.90927e-05
-1.75539e-05
7.20531e-07
2.45218e-06
5.30412e-06
7.35192e-05
0.00667999
7.3532e-06
7.39354e-06
6.46294e-05
0.0145566
2.99911e-05
-0.000278408
-0.00018972
0.000389439
0.000630017
-6.70094e-06
-6.54838e-05
-0.000250254
-0.000306738
0.00141659
0.00461576
0.00300553
0.000807463
0.000103604
0.00216374
0.00135356
0.00317617
0.000636123
-0.00011021
0.00594927
-5.81292e-05
-0.00012822
-0.000257357
-0.000132881
1.36188e-05
0.000147046
0.000322746
-0.000334043
0.00134688
-0.000172242
-6.53356e-05
-1.86441e-06
0.00445054
-8.75352e-05
0.00255274
0.000101251
0.000115394
0.000135249
2.50312e-06
-0.000236846
0.00016975
0.000135028
-0.000446119
-7.34157e-05
9.30185e-07
0.00135245
0.00044394
-0.000946996
-0.000811164
0.000870642
-9.94345e-05
0.000360825
-0.000634704
7.78226e-05
0.0106992
-6.56625e-05
-0.000109057
0.00207864
-0.000202737
-0.00189173
0.000153695
0.000841402
-1.03705e-05
-0.000133479
-4.22778e-05
-0.000677402
-8.31932e-05
-3.07568e-05
-7.46494e-05
-8.12027e-06
-0.00059281
1.67257e-05
0.00072254
0.0134979
0.0103706
0.000195209
-0.00127402
0.000194687
0.0189024
0.0218169
-0.000405358
-0.000258192
9.94219e-05
0.000127366
0.00186125
0.00152789
-0.00211146
-0.00212153
6.86067e-05
-0.00224752
0.00112743
0.000722462
-0.000449451
-0.000513763
-0.000374474
3.09143e-06
5.78332e-07
-5.62542e-06
0.000359464
0.000510694
0.000457418
0.00108268
0.00135097
-0.00111087
0.000488587
0.000510088
0.00112548
0.000174348
0.000798162
0.000841395
0.000798171
0.00112546
0.000510118
0.00135108
0.00048859
-0.00111083
0.000877336
-0.000311856
0.0010825
0.000457514
0.000510802
0.000359398
-5.63597e-06
-3.84977e-05
0.00103598
-0.00103869
0.0011277
4.04184e-05
3.23522e-06
-0.000374542
-0.000513861
-0.000449345
-0.00106282
0.000267089
-0.00116994
-9.90348e-05
0.000610332
-0.000194932
0.00194555
-0.0001208
0.000609793
-9.9479e-05
-0.00116953
0.000266953
-0.00047096
0.00212288
-0.000598657
-0.000153944
0.00121182
0.00121063
0.000153834
-0.00147037
-0.000152876
0.0024457
0.00015056
0.00255272
-0.00331422
0.000101424
0.00395465
-0.00453254
0.00370978
-2.25745e-05
-0.00293735
0.00256995
6.51386e-05
8.26605e-05
8.47942e-05
5.77605e-05
-4.35457e-05
-0.000286823
-0.000478196
0.00415314
-0.00341992
0.0141283
-0.0103115
0.00175018
0.0128023
-0.000325063
-0.0133661
0.00973184
-0.00731275
-0.0159065
-0.0136151
-0.0131281
-0.0136578
0.0229336
0.00441535
0.00307867
8.51699e-06
-0.00772893
-0.0151952
-0.00702642
-0.0129144
-0.00702598
-0.015196
-0.00772874
-0.0136584
0.0229334
-0.0136149
-0.0131284
-0.015907
-0.00731279
0.00973183
-0.0133663
0.0206911
-0.0213069
0.014128
0.00175056
0.0128027
-0.0103115
0.00638659
0.0148413
0.0103701
0.00760694
0.0180727
0.00628064
0.0039115
0.0115846
-0.0116913
-0.011691
0.0039115
0.00628016
0.0180724
0.00760689
0.0103697
0.0134963
0.0148427
0.00638767
0.00830709
0.00696283
-0.00402259
0.0189017
0.0212436
0.0218149
0.0174637
0.0176475
0.0195831
0.0176479
-0.0330463
0.000854962
0.000855488
-0.00932914
0.0174634
0.0218149
0.0212437
0.0189025
0.00696243
0.008307
0.00636065
-0.00057758
-0.000285405
-8.47023e-05
-0.00698744
-0.00903907
-0.0085764
-0.0199391
-0.0238789
0.00454832
-0.00976394
0.0222034
-0.0184003
0.0164084
-0.0139019
0.0120687
-0.0101119
0.008621
-0.00708807
0.00595749
-0.0048121
0.00399714
-0.003218
0.00265345
-0.00226429
0.00228708
-0.00247387
0.00249337
-0.00224782
0.00186111
0.000127161
0.00152924
-0.000599373
0.00212347
-0.000470738
0.000722146
-0.000151553
6.51603e-05
8.2791e-05
8.47317e-05
5.74398e-05
-4.38566e-05
-0.000287199
-0.000478513
0.00415293
-0.00341985
-0.00133237
0.00221475
0.000659237
-0.00828467
-0.00828473
0.00221476
-0.00133228
0.00065937
-0.00368977
-0.0213072
0.0206912
-0.00155044
-0.0166067
0.00156368
-0.000940314
0.00207867
-0.000329293
-0.000389005
-0.0024949
-0.00126912
-0.00249485
0.00156341
0.00441527
0.0101591
0.00307882
-0.0025683
-0.00256814
0.0101592
0.000515252
-0.00645738
0.00702007
0.00701999
-0.000202961
-0.00645736
0.000176432
0.00157265
0.00194583
0.000884175
-0.00923741
0.000884856
0.000248498
0.013711
-0.00336683
0.00445223
-0.00760252
-0.00942454
-0.0202915
-0.0148594
0.0319158
-0.0174451
0.0221011
0.022102
0.000524411
0.0175539
-0.000354428
-0.0144862
0.0127765
-0.000184196
-0.0109085
0.00924804
-5.97299e-05
-0.00784602
0.00648691
7.22263e-06
-0.00542904
0.00439455
4.20625e-05
-0.00366204
0.00289798
5.45468e-05
-0.00252176
0.00189245
8.04585e-05
-0.00213378
-0.000313061
-0.00212763
-0.00212762
0.000174311
-0.000424239
0.000136836
-0.000618725
-2.61006e-05
0.000387452
0.000387402
-0.000460499
-1.84988e-06
0.000472279
0.000472268
-0.000338304
6.89823e-05
0.000766899
0.000766523
-0.000160798
0.000207639
-0.000377993
-0.000378933
-0.000635569
-0.000344002
-0.000538609
-0.000592307
-0.000867346
-0.000353226
0.000630021
-0.000935922
0.000136531
0.000443914
0.00135244
-0.000788359
-0.000446149
-7.34348e-05
-0.000781185
4.05072e-06
0.000785771
-0.00124914
1.38811e-06
0.000153698
0.00125241
-0.00011452
1.31372e-05
0.000130371
-2.71515e-06
6.586e-06
2.01488e-05
3.45469e-05
5.99739e-05
0.000122761
0.00014847
0.000109936
-0.0222066
0.0235954
-0.0243756
0.0213942
-0.018387
0.0164768
-0.0141517
0.0121882
-0.010348
0.00866777
-0.0072873
0.00594848
-0.0049677
0.00395498
-0.00331441
0.00257047
6.84682e-05
-0.00212122
-0.00211222
-0.00146963
0.00178637
0.00018868
0.00178699
-0.00228922
-0.00318059
-0.00318284
0.00384499
0.00377359
0.000209721
-0.00472888
0.00011068
-0.00496791
-4.46339e-05
0.00557675
-0.00553927
-7.93708e-06
0.0066796
-0.00624715
0.00514929
1.5265e-05
0.00445029
-4.46507e-06
-0.00368349
0.00289268
-1.67414e-06
0.00249334
1.0206e-05
-0.00103869
4.05787e-05
-0.00011451
0.000630025
-0.000353252
-0.00086727
-0.000592208
-0.000538384
-0.000344076
-0.000634648
0.000360794
-0.000160837
3.83659e-05
-0.000946819
0.000443625
5.84938e-06
0.000136561
0.00135256
-0.000935801
0.0012524
0.000153717
-2.42573e-05
-0.000338266
6.22028e-05
7.4085e-05
0.00010939
0.000140451
0.000150335
9.94307e-05
-7.32867e-05
-0.000293942
0.00237685
-0.00265233
-0.00604708
-0.00449379
-0.0018917
0.00101281
-0.000189457
-0.000324578
-0.00151493
-0.0166065
-0.000940184
0.00207856
-0.000202708
6.46208e-05
0.000257308
-0.012061
0.011277
-0.0144619
0.00449697
-0.0348699
0.00443045
-0.0150782
-0.000338306
0.0156887
0.0154875
-0.0178358
-0.000288863
0.00141636
0.00461637
-0.000250656
-0.005257
-0.00968539
-0.0117211
-0.00135573
-0.00245311
-0.00347115
-0.0012794
-0.000472917
-0.00108121
-0.000734763
-0.00050982
-0.000621531
-0.000124741
-0.00049385
3.00212e-05
0.0186834
-0.0204066
0.0183653
-0.0189293
-0.000363271
0.0202755
-0.000109418
-0.000202123
-0.000389113
-0.000329511
-0.00368984
-2.13005e-05
-0.000574748
0.000176807
-0.0043195
8.6036e-06
0.00705195
-0.00292172
-0.0113591
-0.00139278
0.00147167
0.000256383
-0.0006857
-0.000887161
-0.000776151
-0.000613952
-0.000490735
-0.000406474
-0.000289619
5.0078e-05
0.000633545
0.000633573
0.000653562
-3.37426e-05
-0.000132909
-0.000222926
-0.00034542
-0.000363277
1.08921e-05
-0.000301307
-0.000206861
-0.000138491
-0.000194195
6.66861e-05
7.35455e-05
0.00755179
-0.00814129
0.00667944
-0.00681669
-7.08626e-05
0.0081904
-0.00992897
-0.000112403
0.0116207
-0.0139713
-0.000192589
0.0158141
-6.00719e-05
-0.0158112
0.0136156
-2.89531e-05
0.0145573
-0.017236
-5.75004e-05
-7.75416e-06
-0.000124335
-6.29722e-05
-3.09359e-05
-0.0115728
0.00970707
-2.3742e-06
0.0106987
-0.0127838
-6.60231e-05
6.49897e-05
-6.44936e-06
-6.55119e-05
-0.00012978
0.0138897
0.000612411
-0.00155046
0.00856208
-0.0003062
-0.000540575
0.00300489
0.00860938
0.0125683
0.00405217
0.00318346
0.000808013
-0.00027949
0.000630328
0.000389883
7.44196e-06
7.67706e-06
5.29651e-06
2.56465e-06
-8.10939e-05
-6.92262e-05
8.81043e-05
6.11144e-05
0.0051493
-0.00553935
0.00445041
-0.00453268
-4.48461e-05
0.0055769
-8.15202e-06
-1.20606e-05
-2.88025e-05
-1.57517e-05
4.81092e-06
1.04523e-05
-0.00624759
-7.94412e-05
-0.000130577
0.0064867
-6.50799e-05
-0.00784687
-6.01389e-05
0.00924805
-0.000170999
-0.0109089
-0.000184636
0.0127758
-0.000380637
-0.0144859
-0.000355644
0.0175536
-0.000745532
-0.0179445
-0.00098384
0.0273723
0.0179601
-0.00374371
0.000819198
0.000819111
0.0273728
-0.000983727
-0.0179445
-0.00374359
-0.0174444
0.00445257
0.0319155
-0.0023442
-0.014859
-0.0202902
-0.00942409
-0.0238799
-0.0076024
-0.00292152
0.00705197
-0.00431967
0.000885203
0.00194636
-0.00923732
0.00088435
-0.0015151
-0.000575165
-0.000908554
-0.000351867
-0.000144927
-0.000237167
0.00016829
-0.000517836
0.000524423
-0.0170948
0.0162611
-0.0137846
0.0119545
0.0119541
-1.18905e-06
-0.0102889
-8.82748e-06
0.00852961
-1.05453e-05
-0.00729369
6.73104e-05
0.00586259
-1.21173e-05
-0.00498848
0.000123582
0.00387455
-2.2373e-05
-0.00337004
0.000207622
0.00246753
-5.99206e-05
-0.00240949
0.00039948
0.00143457
0.000179977
0.00143447
-0.000313085
-0.00213389
8.0419e-05
0.00189242
8.19555e-05
-0.00252174
5.45974e-05
0.00289789
4.49717e-05
-0.00366213
4.19679e-05
0.00439433
-1.75504e-06
-0.00542908
6.97892e-06
6.71735e-05
0.00586251
-4.20042e-05
-0.00498811
0.00387438
-0.0033699
0.00246754
0.000149985
-0.00240946
0.000399308
-0.000109945
-8.25977e-05
0.00020763
-0.0001708
-0.000184911
-0.000229028
-0.000290137
-0.000280339
-3.29344e-06
0.000413491
0.000413882
-0.0113588
-0.0117208
-0.0013556
-4.2667e-06
-0.017094
-0.00095304
0.016261
8.01517e-05
-0.0137845
-0.000222816
-0.000150898
-0.000510535
7.97759e-05
-0.000676963
-0.000444269
-1.40987e-06
-0.0102886
0.00852989
-0.00729393
-1.07814e-05
-0.000359347
-0.000132576
-0.000267712
-1.22452e-05
-0.000178722
-2.24348e-05
5.39148e-05
-0.00010293
-5.99126e-05
9.17053e-05
-0.000754999
0.000136849
-0.000424201
0.000788741
0.000313773
0.000313725
0.000788773
0.000367387
-6.71462e-05
0.000659338
-0.00134339
-9.05509e-05
3.08722e-05
0.000962562
8.63373e-05
-0.000640788
0.000346437
0.000889102
0.000633275
0.000781732
0.000454503
-0.000101491
-0.000109839
-0.00010326
-3.33998e-05
0.000625792
-0.000103309
0.000367374
0.000659408
-6.718e-05
-0.000257424
-9.04336e-05
0.000962593
3.08416e-05
-0.000142196
1.35262e-06
-0.00124916
0.000785801
3.9961e-06
-0.000781184
-7.34229e-05
3.12508e-06
-0.000109745
-8.35345e-05
0.000238025
-0.000257466
-0.000184092
-8.19267e-06
6.91148e-05
3.16219e-06
9.28132e-07
3.8053e-06
-8.21677e-06
0.000238056
-0.000618751
-0.000183923
-0.000109984
-1.00815e-06
9.80956e-06
1.59242e-05
1.87357e-05
2.55275e-05
6.07641e-05
-1.61649e-05
-0.000951916
-1.61633e-05
0.000148261
-0.000745136
0.0222038
0.00010968
0.0186841
-5.72219e-05
0.0183659
-6.04946e-05
0.0158155
-0.000192883
-0.0139711
0.0121891
5.85795e-05
0.00827078
0.00826566
0.000336991
-0.00949808
0.0115379
0.0116355
0.000255344
-0.0128599
-0.000109444
-0.0141536
0.016477
-0.0189295
0.0202752
-0.000362669
-0.0183882
-0.000288311
0.0154864
0.0156893
-0.00033888
-0.0178353
0.0213951
-0.0243757
-0.000109168
-0.0204068
0.0235956
-0.0222065
0.0138901
0.000257352
-0.012061
-0.000454457
0.0112772
-0.000777712
-0.0144623
-0.0104785
0.00449692
0.00443131
-0.0348708
0.012569
0.0120625
0.00180818
-0.000320274
-0.0112972
-0.000485478
0.0112844
0.011286
-0.00073539
-0.0122057
0.000255524
0.0116341
0.0115394
-0.0128599
-0.000110401
-0.0094981
0.000337401
0.00826519
0.00827142
5.82305e-05
-0.00681943
0.000283521
0.00567617
0.00572543
0.000106368
0.000255606
0.000164496
8.91056e-05
-1.75933e-05
6.27269e-07
1.34591e-05
7.49426e-05
0.000103262
4.51579e-05
0.0034236
-0.00368351
0.00289296
-0.00293758
-2.24324e-05
0.00370996
-4.59152e-06
-4.41831e-06
1.68185e-08
-1.77519e-06
-3.99475e-06
-1.73795e-05
-0.00116887
-0.000592771
0.000252198
0.00050612
0.000272708
3.31171e-05
5.65643e-06
3.78915e-07
1.67243e-05
-4.1866e-05
-5.81263e-05
-8.31818e-05
-0.000110334
-0.000144341
-0.000190328
0.000241558
0.00135018
0.00216294
0.00130439
0.000641008
1.54965e-05
-0.000114593
-4.7943e-05
-0.00922977
-0.00669555
0.000376859
0.00598783
0.00598911
-0.00040246
-0.00487381
0.000334822
0.00410682
0.00410766
-0.000301506
-0.00469136
0.000210105
0.00377365
0.00384531
-0.00472902
0.000110664
-6.76169e-05
0.000325815
0.000821618
0.000515125
0.000147054
-0.000102971
-0.000110346
-0.00318072
0.000150496
0.00244615
0.00255284
-0.0031826
0.000101271
-0.000128379
1.3227e-05
0.000292569
9.94699e-05
-0.000133857
-0.000257599
-0.000222822
-0.000406233
-0.000258333
-0.000659117
-0.00085479
-0.000762061
-0.000661743
-0.000792952
-0.000850292
-0.000659802
0.0008706
-0.000821278
0.000362577
0.000139166
-8.73712e-05
-0.000152899
-4.2702e-05
3.75663e-06
1.49215e-05
-0.00268393
-5.27789e-05
7.06586e-06
1.52924e-05
-0.00414926
-7.46502e-05
-0.000101293
0.000123662
-0.000101234
-0.000130605
-0.000157213
5.98864e-05
0.000122715
-0.000381257
0.0164088
2.88309e-05
0.0145579
-2.86656e-05
0.0136156
-3.12079e-05
0.0116214
-0.000112814
-0.00992914
0.00866844
0.000106673
0.00572498
0.00567673
0.000283217
-0.00681879
-0.00670905
-0.00040269
-0.00487259
-0.000114903
0.00135576
0.00225316
0.00421771
0.000102135
0.000102217
0.00180793
-0.00032015
-0.01508
-0.0112954
-0.000283547
6.4638e-05
-7.90047e-06
-0.000202186
-0.000124533
-0.0001343
-1.544e-05
-0.000150765
-0.000222958
-0.000157226
-8.67208e-06
-3.62417e-06
-6.81682e-05
-3.20579e-05
-1.40224e-05
-6.23944e-06
-1.10005e-06
7.96776e-06
8.72716e-05
0.000130406
-2.7291e-06
6.65826e-06
2.01319e-05
3.44368e-05
-6.45477e-05
0.00862062
-8.30198e-05
0.00755227
1.0545e-05
-0.00814137
-1.57838e-05
0.00819031
-7.09023e-05
-0.00681672
0.00594865
-0.00728776
-0.000110665
7.31399e-05
6.70235e-05
-0.000345517
-0.000509771
-0.000733433
-0.000277954
-0.000288575
-0.00022781
-0.000183854
-0.00022325
-0.000133017
-0.000169997
-0.000143821
-3.35349e-05
0.000653646
0.000506684
0.000273043
-0.00226419
-5.27462e-05
0.00228704
-1.73258e-05
0.00103595
1.67131e-05
1.31512e-05
-5.0874e-09
-4.42467e-06
-1.2066e-05
-2.89527e-05
-6.28437e-05
-1.53165e-05
-3.69829e-06
-2.62939e-06
-0.00910133
0.00970706
-0.0115732
0.0106997
-0.0101122
-6.62366e-05
0.0120686
-0.000171222
-0.0139021
-0.000123631
-0.000492984
-0.0184007
-0.00347009
-0.00976437
0.00856276
-0.0085783
-0.0199375
0.00454856
-0.00968322
-0.00525634
-0.00903857
-0.00698703
0.000612481
-8.57332e-05
-0.000277409
-0.0005795
-0.000541015
0.00636041
0.00461577
-0.000250026
-0.0001294
-0.0012806
-0.00245154
-0.000472214
-0.00108493
-0.000300588
-0.000623556
1.16553e-05
7.79238e-05
6.41534e-05
-0.0127837
-0.0158117
2.97397e-05
-0.0172356
-6.50622e-05
-5.55216e-06
7.79835e-06
8.05809e-06
-0.000206171
-0.000364769
-0.000137977
-7.95879e-05
-0.00481199
0.00399709
-7.46931e-05