/*--------------------------------*- C++ -*----------------------------------*\
| =========                 |                                                 |
| \\      /  F ield         | OpenFOAM: The Open Source CFD Toolbox           |
|  \\    /   O peration     | Version:  2306                                  |
|   \\  /    A nd           | Website:  www.openfoam.com                      |
|    \\/     M anipulation  |                                                 |
\*---------------------------------------------------------------------------*/
FoamFile
{
    version     2.0;
    format      ascii;
    arch        "LSB;label=32;scalar=64";
    class       volScalarField;
    location    "2.1";
    object      gradTy;
}
// * * * * * * * * * * * * * * * * * * * * * * * * * * * * * * * * * * * * * //

dimensions      [0 -1 0 1 0 0 0];

internalField   nonuniform List<scalar> 
2658
(
0.00843336
0.00487601
0.00151814
-0.000188321
-0.0175388
0.021551
-0.018306
0.0154125
-0.000267277
-0.0152676
0.00472781
-0.0347933
0.0211334
0.021496
0.0173957
0.0178698
0.0195938
0.0175921
0.0178071
0.0212296
0.0204579
0.0178222
0.00588595
-0.00404013
0.0065975
0.019578
-0.00427829
0.00116769
0.0159703
-8.06666e-07
-0.0159705
0.00427838
-0.0195791
-0.00588581
-0.00659726
0.00404064
-0.00119743
0.00167124
-0.0178277
-0.0204591
-0.0212312
-0.0178078
-0.0175908
0.00881546
-0.00136191
-0.000665167
-0.00472807
0.00917635
-0.017873
-0.0173959
-0.0214945
-0.0211335
-0.0187329
0.00388539
-0.00698415
-0.006584
0.000455282
-0.0114463
-1.10512e-07
-0.000180374
-0.000454993
0.00658373
0.00698457
-0.00388592
0.00456051
-0.0101595
-0.0143453
-0.000643377
-0.0238679
0.0238681
2.26892e-07
0.0202038
-0.000218608
0.0166303
-4.96437e-05
-0.0126008
-0.0124908
0.000333455
0.0120728
0.00792999
-0.00836155
-0.000591117
0.010774
0.0161912
-0.000351666
-0.000200359
1.03038e-05
9.30427e-05
0.000112818
0.000111055
8.98193e-05
-0.0002756
0.000144398
0.000725996
-0.000316261
-0.00076177
-0.00013189
-0.000799611
-0.000142798
-0.000301718
-0.000875962
-0.000233257
-0.000769654
-0.000409033
-0.000341347
0.000789605
-0.00028325
-7.05225e-06
0.000105365
-0.000824385
0.000273562
-0.000372765
-1.46377e-08
0.000372764
-0.000273615
0.000824363
0.000341369
-0.000789623
0.000769639
0.000409032
0.000233188
0.000875951
0.000301708
0.000142796
-0.000622551
-0.000602777
-0.000726032
0.000761833
0.000131932
0.000316313
0.000859315
0.000218649
0.000410221
0.000374252
0.000768379
-0.000348274
2.53837e-05
3.89742e-05
-0.000799551
0.000799732
-2.54608e-05
0.000348302
-0.000207111
-0.000215563
-1.96995e-06
0.000214858
3.80762e-07
4.34235e-07
-0.000428578
0.000422416
9.41157e-07
3.38122e-05
0.000226249
-0.00025436
0.00101603
0.000235256
0.000952943
0.00112859
0.00119589
0.000947143
0.000953539
0.00109468
0.000953064
0.000963529
0.00122263
0.00113953
0.000995725
0.000321018
-6.67897e-05
0.000208853
-0.0014592
0.00196792
-0.00222768
0.00288396
-0.00344895
0.00423258
-0.00518386
0.00604515
-0.00750384
0.00831485
-0.0104797
0.0109919
-0.01423
0.0139902
0.0136836
0.0114692
0.0108925
0.0152683
0.0175383
0.000188139
-0.0215515
0.0143454
0.0101586
-0.00456064
0.0347928
-0.00425516
0.000351386
0.000200184
-1.03778e-05
-9.32278e-05
-0.000112983
-0.000111031
-8.98093e-05
0.000275602
-0.000144334
8.77103e-06
-0.000330967
0.000122016
-0.000425939
0.00042593
0.000330999
-8.80236e-06
-0.00012205
-0.000127477
0.000602837
0.000622537
-0.00077038
0.000708423
0.000169313
-2.00907e-05
-0.000114703
0.000109604
-9.5252e-05
-9.80556e-05
-4.65597e-09
9.80371e-05
-0.000169466
0.000283237
-0.000541834
7.09348e-06
-0.000599371
0.000599427
0.000541856
6.22842e-10
-0.000376826
-0.000413359
0.000413395
-0.000116568
0.000376843
-5.61655e-05
-6.51186e-09
-0.00029778
-0.000133397
0.000388897
-0.000101355
3.36898e-08
2.38863e-08
-1.08792e-08
-0.00058837
0.000414666
0.0011423
-0.000279792
0.00090763
-0.00123218
0.00150253
-0.00166777
0.00166768
0.000221093
0.00200448
0.000142478
-0.00256374
0.00306092
8.08911e-05
-0.00381546
0.0046184
1.2466e-05
-0.00557491
0.00674191
-0.000104704
-0.00787569
0.00948001
-0.000372788
-0.0106983
0.0128601
-0.00105054
-0.0139532
0.0168203
-0.00292656
-0.0185487
-0.00861867
-0.0192436
0.0192439
-0.00116706
-0.00529899
0.0100167
0.00893498
-8.87011e-08
-0.00633425
0.00633431
0.00661659
-5.21545e-08
-0.00797255
0.00797256
0.00322574
-3.57071e-08
-0.0207983
0.020798
-0.0130018
1.33136e-07
0.0130015
-0.0101459
0.006441
0.0148431
0.0103406
0.0134661
-0.0200347
0.0142106
0.00187767
0.00120225
0.000187719
-0.00322582
-0.00117458
-0.00333939
-0.0114746
0.00624971
0.0178334
0.0075891
0.00850141
-0.00437783
1.05198e-07
0.00437808
0.0033394
-0.0142107
0.0200343
-0.0148445
-0.00644191
0.0101456
-0.00187801
-0.00120233
-0.00850054
-0.00758967
-0.0178331
-0.00625002
0.0114745
-0.0116624
-0.00428957
-0.0165086
-0.00378251
0.0108138
0.0025851
-0.00250458
0.0117542
-0.00235685
-0.00285701
4.57234e-05
-0.000133946
-0.000260857
-0.000272803
-0.000239473
-0.00019673
-0.000151266
-0.000170376
-0.00137481
-0.00117049
-0.00105421
-0.00160888
0.00222611
-0.00252099
0.00329945
-0.00391012
0.00484726
-0.00589674
0.00691575
-0.00859011
0.00949254
-0.0120729
0.0124916
-0.0161916
0.000266718
-0.0154119
0.0183073
-0.0202042
0.0185678
-7.42706e-08
-0.0185676
0.0156855
-0.0141002
0.011439
-0.00930388
0.0122991
8.85482e-05
0.00817655
0.000396804
-0.0094916
-0.000447524
-0.00628523
-0.00718938
0.00039767
0.00645393
0.0070519
-0.00803838
-0.000495044
0.00904133
0.000275316
-0.0093854
0.011977
-0.000459868
-0.0108924
-0.00013434
0.000665227
-0.00917654
0.0116621
-0.0117546
0.00250436
0.000849404
-0.000114418
-9.51043e-08
0.00016817
-2.55826e-05
-0.00016853
-0.000201866
-0.000186958
-0.000158251
-0.000121395
9.52458e-05
-0.000109607
0.00011469
0.000116491
2.01233e-05
-0.000708463
0.000770402
-0.000511634
0.000395982
0.000230922
0.00019195
0.000488244
0.0003479
-9.90539e-05
-0.0012753
0.00220042
-3.97996e-06
-0.00260485
0.00210178
-0.00169477
-0.000166708
2.0682e-05
0.000600721
0.000609367
0.000604996
0.000380834
0.00043142
3.5313e-06
0.000157974
0.000207069
2.3642e-05
-0.0002306
-2.1619e-05
-8.73305e-05
-0.000169756
-0.000170768
8.90891e-05
0.000110949
0.000134068
0.00192609
0.00169439
-0.00185695
-0.00162113
0.000130654
0.00153176
-0.000187345
5.62137e-05
-0.000212556
-0.000474742
-0.000480141
-0.000797686
-0.000355387
-0.000276291
-0.000418346
-0.000650214
-2.04194e-07
5.9169e-05
0.000137123
0.00407128
0.00370256
-0.00442428
-0.00382774
0.000270213
0.00323234
-0.00252478
0.000197244
0.00222797
-0.000225062
0.00252661
-0.00291722
0.000208163
0.00279161
-0.00211645
0.000139846
2.49489e-05
-7.8617e-05
-0.00200418
2.39056e-05
0.00175017
-0.000238503
-0.00142615
-0.000298829
-0.000126257
-2.91419e-05
4.7549e-05
0.000133644
0.000238546
0.000230367
-0.000524746
0.000215186
0.000378749
0.000234177
1.983e-05
0.000108103
0.000123959
0.000126868
-0.000232539
-0.000487542
-0.000818204
-0.00081254
-0.00132305
-0.00126293
-0.00206602
-0.00125375
-0.00062396
-0.00123124
-0.00292638
-0.000431097
-0.000132871
5.16713e-05
0.00803849
0.00719025
-0.00904095
-0.00792872
0.000447597
0.00628552
-0.00560379
0.000350857
0.00458134
-0.000355018
0.00526197
-0.00645352
0.000380202
0.00581152
-0.0048586
0.000287709
4.99143e-05
3.68752e-05
-0.000112554
-0.00306056
1.46423e-05
0.00256375
-0.000142505
-4.78367e-05
-0.00255739
0.00329167
-0.00388368
0.0038838
8.70532e-05
-0.0048785
5.79609e-05
0.00574701
3.73251e-05
-0.00702006
7.30324e-05
0.00819936
-8.071e-05
-0.00971546
6.57752e-05
0.0112483
-0.000437469
-0.0128523
-5.28835e-05
0.0148324
-0.00169705
-0.0158076
-0.00130784
0.0179518
-3.38229e-07
-0.0179519
0.00861729
0.0185498
0.00292534
-0.0168196
-0.000185916
0.0139528
0.00104981
-0.0128595
-5.65084e-05
0.0106997
0.000372034
-0.00947896
-2.62498e-05
0.00787667
0.000103761
-0.00674161
-7.46105e-06
0.00557529
-1.28816e-05
-0.00461808
5.39867e-06
0.00381572
-8.08144e-05
-4.64355e-05
-0.000178589
-0.000121721
-4.57263e-05
0.000307328
-1.50936e-07
-8.58371e-09
-3.00159e-07
2.72252e-08
2.59782e-07
4.64158e-07
9.25742e-07
3.16264e-06
1.04143e-06
-2.99841e-07
-9.98447e-07
0.0053757
-0.00537648
-0.00749312
-0.00720532
-0.00209788
-0.00388831
-0.012105
0.035761
-0.00322551
0.000266663
-0.000127081
-0.000236
0.00130791
0.0158085
0.0016961
-0.0148318
-1.17801e-07
-1.19345e-07
-1.37652e-07
0.000437291
-0.0112481
0.0128525
5.28493e-05
-0.000179969
-0.0001997
-6.6011e-05
0.00971567
8.04807e-05
-0.0081995
1.31089e-07
-1.56994e-08
-5.70189e-08
-8.19933e-08
-8.74542e-05
0.00487863
-0.00574695
0.00702052
-7.28191e-05
-0.000183274
-0.000149616
-7.83137e-08
-4.6458e-08
1.35531e-08
-9.59664e-09
-0.000221178
0.00220841
-2.36165e-08
-0.00220847
4.79053e-05
0.0025575
0.000130199
-0.00329175
4.63905e-05
0.000112471
2.88685e-08
-0.000130475
7.02925e-08
7.85861e-05
2.91362e-05
0.0014262
0.000238348
-0.00175014
0.000126281
-0.0015025
0.00058843
0.00123218
5.08097e-08
-0.000907588
0.00027986
-0.00114238
-0.000321034
-0.000414636
-4.58835e-05
-0.000258428
-0.00013455
0.000101344
0.000297752
-0.00038895
0.000133439
-0.000403201
0.000298098
-1.42191e-08
-0.000298101
-0.000148394
0.000799585
0.000403208
5.62063e-05
0.000134588
-0.000105349
0.000258445
4.58709e-05
5.76916e-05
-0.000285617
-0.000122965
0.00040228
0.000375324
-8.6092e-05
9.77689e-05
0.000546543
-0.000778679
0.000740034
-9.99484e-05
2.07127e-09
4.3777e-08
2.90234e-08
-8.18189e-09
3.44226e-09
-2.14018e-08
-5.38256e-09
3.66266e-08
-3.65538e-08
-3.11639e-08
1.37931e-07
1.14962e-07
-6.70869e-08
-1.15608e-07
9.50851e-09
-4.44667e-07
-0.0100172
0.00529926
-0.00452537
0.00752646
-0.00752665
0.00452513
-0.0150062
0.00156476
-0.00601911
0.0138552
0.0035023
-0.000323506
0.0129805
-0.0116163
-0.00672561
-0.0176444
-0.00569126
-0.00862108
-0.0126774
-0.00720555
0.000697009
0.00625303
0.00192283
-1.65993e-06
2.79653e-07
-0.00192202
0.0150058
0.00601896
-0.00156514
0.00469207
-0.00350252
-0.0129811
0.000323169
0.00151404
-0.00258527
-0.010814
0.00378168
0.0165075
0.00428948
0.007542
-0.0061169
-0.00625453
9.1972e-07
-0.00229637
-0.00469219
0.000358541
-0.000456278
-0.00732038
0.0061168
0.00122273
-0.00754201
-0.000191469
-0.000187899
0.00117436
-0.000849392
0.000114276
0.000134286
-0.00194332
-0.00422874
-0.0022193
-9.4705e-05
0.0107788
0.00938709
-0.0119772
-0.010773
0.000591339
0.00836161
-0.000275395
-0.000173738
-0.00220865
-0.00132186
7.72659e-06
9.32427e-05
0.000118517
0.000125462
0.000138133
-0.0032425
-0.000251044
9.06471e-05
0.00313921
-7.37596e-05
-0.00399098
0.00493551
-0.000102382
-0.00599583
0.00464564
-0.00376882
-0.000256203
-0.00564316
-0.000115785
-0.0087403
0.00668576
-0.000330621
-0.00817608
-8.87798e-05
-0.0122989
0.00930329
-0.000397089
-0.0114387
5.03209e-05
-0.0166311
0.0125998
-0.00033441
-0.000889549
-0.00412594
-0.012443
-0.0124155
-0.0195993
-0.00190101
0.0328135
-0.00305892
-0.00318311
-0.00151808
-0.00068794
-0.000418594
-0.000267947
-0.000166688
-8.31312e-05
-4.02929e-05
6.43864e-05
2.19908e-05
0.00444329
1.71621e-07
-0.00444358
0.00548738
9.2773e-08
-0.0066856
0.00668555
-0.00548732
-3.33672e-08
-3.4718e-08
1.87543e-08
4.86852e-05
0.000124787
-2.39337e-05
0.00110878
4.06109e-07
-0.001109
0.00234154
1.77003e-07
-0.00287549
0.00287522
-0.00234129
3.23113e-05
0.000305277
-0.000387227
0.000387252
-0.000215615
-0.00010614
-0.000305385
0.00127544
9.92755e-05
-0.000348113
0.00169528
4.11143e-06
-0.00210213
0.00260492
-0.00220021
2.378e-05
-4.86681e-05
-4.75538e-05
0.000151216
-2.37957e-05
0.00145925
0.000170514
-0.00192601
-0.000139773
0.001857
0.00022504
-0.00222779
-0.000197262
0.00252577
0.00390995
0.000256391
-0.00464587
0.00599526
0.000102637
0.00376954
-0.00313952
0.00399098
7.3763e-05
0.00246732
0.000202522
-0.00329903
0.00252099
0.00162164
-0.00153194
-0.000130591
-0.0022258
0.000166553
0.00160882
0.00105444
0.000187235
-0.00169428
0.00117055
0.00137495
-0.000395979
-0.00013358
-0.00023079
0.00214809
-0.000191988
-0.00012479
-0.000488101
0.00224856
-0.00094716
-0.000953689
0.000524811
-0.00023032
-0.000238568
-0.000206955
-0.000431454
-0.000307307
4.56613e-05
0.000121945
-3.45987e-06
8.76306e-05
0.000178448
0.000246247
0.000170169
0.000276793
0.000318519
-0.000319095
-0.000246267
-5.79143e-05
-0.000355581
0.000354727
0.000418688
0.000624424
0.000292491
-0.000293573
-0.000352544
0.000353288
0.00123364
0.00749459
0.00720737
0.00210153
-0.0139897
-0.000484685
-0.0136832
-0.000266735
0.00136179
-0.0328136
0.00235668
0.00285669
-4.61685e-05
0.000133609
0.000260362
0.000272543
0.000239278
0.000196647
-1.45482e-05
0.00222792
0.000206117
-0.0027915
-0.000208319
0.00291721
0.000284594
-0.00323214
-0.000269563
0.00382896
0.00589696
0.000330265
-0.00668635
0.00874007
0.000115882
0.00564373
-0.00725894
-3.97751e-05
0.00808136
-1.39729e-08
-0.00974275
0.00974259
-0.00808137
3.97006e-05
0.00725952
8.80619e-05
1.40363e-07
2.60592e-07
6.9363e-08
6.40142e-07
-3.25338e-05
-0.000234959
-0.00101725
0.000256972
0.000154376
-0.000768627
-0.000374524
-0.000410321
-0.000740205
-0.000218628
-0.000859279
-0.00119553
-0.00112846
9.95273e-05
-0.000953322
-0.000235403
-0.000378625
-0.000600524
-0.000609387
-0.000605005
-0.00122261
-0.000963567
0.000511606
-0.000953086
-0.00109517
0.00228306
-0.00020886
0.000298849
6.67098e-05
-0.00113958
-0.000995903
-0.000380529
-2.34594e-05
-0.000158354
-0.000110687
-0.0019677
-0.000133906
0.0021169
0.000230654
2.43423e-05
-8.84326e-05
-0.0028837
0.00344948
0.000251295
-0.00407096
-0.000287571
0.00485937
0.00442429
0.000354937
-0.0045817
-0.00035091
0.00560504
0.00858966
-0.0069149
-9.30031e-05
-0.000119874
-0.0058107
-0.000379594
-0.00526122
0.00020172
0.000186755
0.000158119
0.000121364
-2.49555e-05
-3.6866e-05
-4.98906e-05
0.000149557
0.000183123
-6.67336e-05
6.65252e-05
9.08989e-05
0.000494774
-0.00992171
-0.000171898
0.000128163
0.000656132
-0.0135783
0.000484309
0.000186578
0.000121743
9.24671e-05
7.07624e-05
5.20507e-05
3.34773e-05
5.23583e-06
0.00327459
-0.00362649
0.00362674
-0.00327422
-5.3823e-06
-3.34205e-05
-5.20684e-05
-2.21335e-05
-0.00493516
-6.44938e-05
-4.15523e-05
-1.94215e-05
8.33711e-05
0.000166865
-8.80252e-05
-4.50318e-05
-9.03078e-05
-0.000125376
-0.000137903
0.00324291
0.000480668
0.00017531
-5.79723e-05
-0.00423206
0.00518452
0.000299854
-0.00604468
0.00750471
0.000314528
-0.00831382
0.01048
0.000171595
-0.0107794
-0.000656713
0.0135789
0.0142306
0.000185877
-0.0109909
5.68981e-05
0.000431872
0.000135019
1.81382e-06
0.000360768
0.000798402
0.00126396
0.000658953
0.00206612
0.00126677
0.00388901
0.00292125
0.0121048
-0.0357607
0.0011969
-0.0016696
0.0126766
0.00569062
0.0176445
0.00672563
0.011616
-0.00881528
0.00322604
0.00190064
-0.0114687
-0.000168467
2.53416e-05
0.000168309
-1.29089e-07
-1.3585e-07
-0.000128286
0.000179861
0.000199474
-9.08856e-05
-0.000121991
-3.06821e-08
-4.3457e-08
-9.24929e-05
-7.08839e-05
-6.20706e-05
-0.0103161
0.011493
-1.04542e-08
-0.0137087
0.0137084
-0.0114932
6.21489e-05
0.0103169
0.00011035
-5.22992e-05
-0.000359868
4.54024e-05
-0.000176233
-0.000297865
-0.000682488
0.000130514
0.0141005
-0.0156852
0.000104924
-1.09522e-07
-5.33402e-08
-4.06369e-08
-9.05229e-08
-0.00661696
0.00122612
0.00012691
0.000235655
-0.000358373
-0.00893591
0.00229649
0.000455766
0.00731996
0.00720482
-0.0138546
0.0086204
-0.000697259
-0.00122352
-2.93432e-07
0.00425495
0.0114462
-0.000100964
8.88641e-07
0.000169477
0.000218629
0.000101231
-0.00487629
-0.00843405
-0.00842703
7.16728e-08
0.000180322
8.96728e-07
0.00064319
8.38756e-07
2.04967e-07
1.18766e-08
-0.000110419
0.000268467
0.000418779
-0.000130613
-0.000105333
0.000298038
5.25453e-05
0.000818863
0.000487821
0.000232947
-2.06594e-05
-5.60726e-05
0.000212734
0.000474973
-0.000136681
-0.00370216
0.000812772
0.00132341
-5.10264e-05
0.00992303
9.59046e-05
0.000174204
-6.93602e-06
0.00132284
0.00221061
0.00222037
0.00423039
0.0124155
0.00194322
0.00412593
0.0124424
0.00305805
0.00088962
-0.000170061
0.00068735
0.00139213
0.00318362
0.000685022
-0.000118444
-0.00484624
-0.000126799
-0.000123928
-0.000215385
-0.000107921
4.05981e-05
0.000177978
0.000360058
-0.000186644
-0.00138988
2.65849e-05
7.60306e-06
-5.23796e-06
-0.00252631
4.15021e-05
-0.0024668
-0.000202594
0.000122965
0.000285639
-5.76883e-05
-9.77899e-05
-1.07126e-07
8.61038e-05
-0.000375355
-0.000402273
0.000148425
0.000778691
-0.000546573
-3.9272e-05
-0.000226683
0.000215166
0.000106183
0.000207677
-0.000153811
0.000120408
-0.00704998
-0.000314758
0.000459967
-0.0015143
-0.00122636
0.000191592
0.000127457
-1.94498e-08
-3.79007e-05
1.91008e-08
1.16357e-07
1.63998e-07
-0.000299998
-0.000397323
-0.00020606
-0.000284585
-0.00228296
-0.00214799
-0.00224841
-0.0134657
-0.0103407
0.00179264
-1.93064e-07
-0.0017928
0.0187333
0.00842605
-0.000379009
-0.000234111
-1.97304e-05
3.91225e-06
0.00169464
-0.00220032
0.00260481
-0.00210195
0.00016671
0.00160864
-0.000488322
0.00224833
-0.00112861
-0.00119603
-0.000947249
-0.000953611
-0.00109473
-0.000953107
-0.000963589
-0.0012226
-0.00113962
-0.000995859
-0.000321154
0.000298815
-0.000414692
-0.00114235
0.000279738
-4.5828e-05
-0.000907622
4.44722e-08
0.000907596
-0.000279792
0.00114238
0.000321141
0.000414684
-0.000298835
0.000208903
-6.66509e-05
0.000996161
0.00113968
0.00122262
0.000963615
0.000953164
-0.000511544
0.000230913
0.000192001
0.000488196
-0.000524685
0.000953777
0.000947238
0.0011958
0.0011286
0.000953421
-9.94197e-05
0.000235595
0.000106158
0.000305493
0.00110911
-3.96749e-07
0.000387238
-0.00030531
-0.000106229
-0.000235316
9.97705e-05
-0.000348028
9.90297e-05
0.00127524
2.38993e-05
0.00234124
-0.00234141
-2.41541e-07
-0.00287527
-5.23843e-06
-0.00327423
7.37096e-05
0.00246682
0.0025207
0.000202633
-0.00329927
-0.00222808
0.00162123
-0.000130784
-0.00153191
-0.00222612
8.98282e-05
0.000111069
0.000112894
9.30232e-05
1.061e-05
-0.000200018
-0.000351221
0.00425531
-0.00333911
-0.0114744
0.00625016
0.0116625
0.00428978
0.0165079
0.00378216
0.00672601
0.0176452
0.00569125
0.0126769
0.00862071
0.00601854
-0.0138554
0.00469196
-0.000358644
-0.00156496
0.015006
-0.00452453
0.00752668
5.47482e-08
-0.00752716
0.00452479
-0.0150055
-0.0060185
0.0138554
-0.0126764
-0.00862048
-0.00569105
-0.0176448
-0.00672543
-0.003782
0.0108143
0.0117541
0.0114744
-0.0116622
-0.0042895
-0.0062503
-0.0178337
-0.0075901
-0.0103408
-0.0148446
-0.00644151
0.0101457
-0.013002
-0.00187791
0.0207983
-0.0207982
0.013002
-0.0101459
0.00644082
0.0148435
0.0103409
0.0134665
0.00758976
0.0178328
0.0214955
0.0211335
-0.00388589
0.0187332
0.00698454
0.00842601
0.00658372
-0.000179905
1.23988e-06
0.000180324
-1.73731e-07
0.0114465
-0.0114464
0.000455025
-0.00658393
-0.00842623
-0.00698506
-0.0187335
-0.0211341
-0.0214947
-0.0173957
-0.0178695
-0.0195935
-0.0175918
-0.017807
-0.0212306
-0.0204575
-0.0178241
-0.00588436
0.00167081
-0.0011971
0.01399
-0.0142316
0.0109907
-0.0104799
0.00831477
-0.00750444
0.00604469
-0.00518445
0.00423257
-0.00344907
0.00288393
-0.00222788
0.00196772
-0.00145924
-0.00137481
-0.00117046
-0.00105428
-0.00160873
-0.00169503
-4.11254e-06
0.00220033
-0.00127535
-9.91535e-05
0.000348174
-0.00224837
0.000275641
-8.97998e-05
-0.000111026
-0.000112807
-9.3009e-05
-1.02853e-05
0.000200065
0.000351111
-0.00425531
0.00333899
0.0011744
0.00322573
-0.000849528
0.00797257
-0.00797248
-0.00322566
-0.00117439
0.000849589
0.00250456
-0.0117545
-0.0108139
0.0116162
-0.0129808
-0.00350242
0.000323429
0.00151415
-0.00258503
0.00235694
0.00285698
3.62321e-08
-0.00285679
0.00350237
-0.00469191
0.00893521
0.000358182
0.0100167
-0.010017
-0.00893554
-1.14533e-07
0.00633439
0.0066166
-0.00661684
0.00122614
-0.00633429
0.000455796
3.47671e-07
0.00625305
0.000696982
-0.00720475
0.00192277
-3.56043e-07
-5.06371e-07
1.60524e-08
0.00861796
-0.00659762
-0.0195781
0.00427795
-0.0159712
0.0192431
-0.0179513
0.0158075
-0.0158081
-0.0016966
-0.0139525
-0.00104978
0.0128592
-0.0106995
-0.00037153
0.00947891
-0.0078767
-0.000103297
0.00674123
-0.00557539
1.32403e-05
0.00461799
-0.00381574
8.09934e-05
0.00306058
-0.00256378
0.000142582
0.0020043
-0.00175031
0.000238383
0.00142608
0.000588334
0.001232
-0.0012321
4.57777e-05
0.000258397
-0.000599345
-0.000541788
1.76936e-08
0.000376821
-0.000376826
-0.000413336
1.34415e-08
0.000425914
-0.000425922
-0.000330977
-3.37824e-08
0.000799526
-0.000799689
2.54784e-05
-3.40618e-07
-0.000214886
0.0002156
-0.000154385
0.000768658
0.00037455
0.000410387
0.000218773
0.000859408
0.000316329
-0.000725977
-0.000144385
0.000546605
-0.000778672
0.000740309
0.000375335
0.000402343
0.000132037
0.000799702
0.000142882
-0.000622485
-0.000109602
0.000127478
-0.000602798
0.000761897
9.52877e-05
9.80967e-05
-0.000151215
-0.0001967
-0.000239417
-0.000272633
-0.000260548
-0.000133744
4.60541e-05
0.00048493
0.0136821
0.0114699
0.0108919
0.0152688
-0.0161917
0.0124921
-0.0120733
0.00949277
-0.00859019
0.00691561
-0.00589751
0.00484683
-0.00391024
0.00329922
-0.00252106
0.002226
-0.000166602
0.00210207
-0.00260494
0.00287554
-0.00362661
-6.1512e-08
0.00362636
-0.00444363
0.0039909
-0.0031396
0.00376918
-0.00493524
0.000102447
-0.00464612
0.000256557
0.00390967
-0.00019723
0.00252517
0.00291671
0.000284744
-0.00370247
-0.00407133
0.00324233
-0.000208361
-0.00252656
0.000225108
0.00185666
-0.00169446
0.000187381
0.00105417
-0.000124923
-0.000192023
0.000524601
-0.000761932
-0.000316305
-0.00085942
-0.000218702
-0.000410287
-0.000374365
-0.00076843
0.000153779
-0.000207713
-2.53821e-05
0.000348293
-3.90401e-05
-0.000546594
-8.87001e-06
0.000144361
0.000778669
0.000725998
0.000602774
-0.00012752
-0.000122094
0.000331002
-1.76712e-08
-2.32559e-08
-2.31569e-08
3.06161e-08
5.41487e-08
5.7655e-08
1.01371e-07
3.6392e-08
2.11708e-08
-1.28829e-09
2.43893e-07
0.0043777
-0.00019162
-0.00754179
0.00122336
-0.0165072
-0.00731985
0.0129804
-0.000323453
-0.00151412
-0.00122633
-0.000127063
0.000266714
-0.00136217
-0.000664879
-0.00472823
-0.00456071
0.0101586
0.0143455
-0.0215514
0.000188065
0.0183069
-0.0154115
0.0175383
0.000266716
-0.00412516
-0.0124437
-0.0124147
-0.0121034
-0.00720851
-0.00749358
-0.00123362
-0.00292332
-0.00210114
-0.00388963
-0.00206493
-0.00126611
-0.000624469
-0.000419117
-0.000657653
-0.000134662
-0.000432047
-9.51764e-05
-0.0135783
-0.0119775
0.0093864
0.00836078
0.000591482
-0.0107728
0.000458621
0.000168293
-0.00235687
0.00258522
-0.00250462
-0.00018788
0.00611695
-0.000456244
-0.00229667
0.0015651
-0.00529922
-0.00116752
-0.00537576
1.57701e-07
3.14473e-07
1.05185e-06
3.16926e-07
-2.90291e-07
-3.83846e-07
-3.31496e-07
-7.07167e-07
-3.17303e-07
1.40095e-08
8.66261e-08
-0.000307347
0.000307338
0.000431393
3.25086e-06
-8.7594e-05
-0.000170183
-0.000276916
-0.000360455
-1.67472e-06
-0.00126284
-0.000797795
-0.000480379
-0.000174533
5.81525e-05
0.000137146
-0.00485926
-0.00442475
0.00370219
0.00323192
0.000269845
-0.00382831
0.00458086
0.000350828
-0.00560419
0.00628488
0.000447536
-0.00792858
-0.000275867
-0.00904173
0.00719017
0.000494931
-0.00992172
0.0107783
0.000656197
0.000128177
-2.53993e-05
-0.000168408
-0.000397877
-0.00645406
0.00526154
0.000379673
-0.0070507
0.00803861
-0.000315036
5.18292e-05
-0.00221898
-0.00422921
-0.00190018
-0.00322537
0.0088157
-0.011616
0.0357603
-0.00194356
0.00917656
-0.00305821
-0.00843355
-0.00487638
-0.00151854
-0.00318332
-0.000888804
-0.000173411
-0.00220885
-0.00132144
-0.00132227
-0.000811773
-0.000474522
-0.000212437
-0.000230429
-2.3884e-05
8.84426e-05
0.00013815
-0.00324263
-0.00291722
0.00252658
0.00222774
0.000197138
-0.00252521
-0.000284778
-0.000186887
-0.000201684
-0.000355395
4.99403e-05
0.000287535
0.00407076
-0.000251364
-0.000149548
0.00557502
-8.01851e-06
-0.00674209
0.000104033
0.0078763
-2.63509e-05
-0.00947976
0.00037262
0.0106988
-5.67309e-05
-0.0128597
0.00105003
0.0139523
-0.000186302
-0.01682
0.00292619
0.0185486
0.00404044
0.00130758
-0.000235908
0.000235906
-0.0185492
-0.00292548
0.0168197
-0.00130786
0.0179515
-0.00861774
-0.0192435
-8.28129e-08
0.0159704
-0.00427794
0.0195792
0.00588469
0.00659754
0.00116742
0.00529957
0.00229647
-0.00192301
-0.00625347
0.00720536
-0.000697134
0.00732001
-0.00611667
-3.64842e-07
7.33356e-08
-1.37194e-08
-5.29071e-08
2.24051e-08
6.17522e-08
0.00169727
-0.0148316
0.0128516
-0.0112483
0.00971581
-0.00971642
-8.06417e-05
0.00819967
7.31989e-05
-0.00701997
3.76189e-05
0.00574684
5.82517e-05
-0.00487855
8.73262e-05
0.00388378
4.64487e-05
-0.00329163
0.000130371
0.00255745
4.78203e-05
-0.00220857
0.000221143
0.00166763
0.000126158
-0.00150266
-1.20843e-08
0.00150255
-0.000588288
-0.00142617
-0.000238406
0.00175017
2.38278e-05
-0.00200438
-0.000142511
0.00256376
1.45398e-05
-0.00306085
-8.08846e-05
0.00381549
5.20828e-06
-0.0046185
-1.28779e-05
-5.82749e-05
0.00487837
2.03955e-08
-0.00388406
0.00329167
-0.00255755
0.00220854
-9.24568e-08
-0.0016677
-0.00012625
-2.91107e-05
-7.86102e-05
-4.79328e-05
-0.000121672
-0.000178621
-0.000246715
-0.000319422
-0.000355502
-0.000292951
-0.000352215
0.000352341
0.00537564
0.00749385
0.00123322
0.000291776
0.0148315
-5.29546e-05
-0.0128522
-0.000437535
0.0112475
6.63598e-05
0.00019966
2.12376e-07
0.000438262
5.3538e-08
-6.82853e-08
8.11914e-05
-0.00819989
0.00701981
-0.00574714
-3.75801e-05
-4.96579e-08
-1.05806e-07
-3.38232e-08
-8.73578e-05
-3.44459e-08
-0.000130247
-5.9116e-08
1.48455e-08
-0.000220982
-2.42746e-08
2.52948e-08
0.000599353
-0.00025841
0.000273583
-0.000372784
0.000372744
-0.000273579
0.000824393
-0.000105324
0.000341387
-0.000789528
-0.000169444
2.0153e-05
-0.000708446
0.000770522
0.000301795
0.000875977
0.000233308
0.000409166
0.000769708
0.00038895
-0.000133375
-0.000297771
-0.000101356
8.11003e-08
-4.73492e-08
0.00010127
-0.00082445
-0.00034138
0.000105253
-0.000283307
0.000169331
0.000708414
-2.01595e-05
-0.00011473
0.000109611
0.000622513
-0.000142856
-0.000799625
-0.000132031
-0.000402334
0.000298103
0.000297775
-2.79719e-08
0.000134595
0.000283248
7.11295e-06
5.62035e-05
0.000403246
-0.000298086
-0.000148402
-1.50516e-08
-5.61972e-05
-0.000134612
0.000541836
-7.23753e-06
2.90794e-05
-2.77131e-08
2.0782e-08
2.21814e-08
9.24662e-08
-7.93176e-08
9.95659e-08
-0.000179716
5.33103e-05
0.000179928
-4.57149e-05
0.000185896
-0.0139903
-0.000484362
0.0135785
-0.000656483
-0.00938752
0.000274989
0.00792854
-0.000447286
-0.00628609
-0.00949259
0.000396249
0.00817585
-0.0103163
8.8453e-05
-0.00930453
0.011438
-0.0141003
-4.97369e-05
-0.0126016
0.000334084
0.0120722
-0.0124911
-0.00836299
0.0107729
-0.000590877
0.016191
-0.000265913
0.0154118
-0.0183059
-0.000187897
-0.0175392
-0.0152683
-0.0108929
-0.000459088
0.0119763
-0.0114694
-0.0136834
0.00322549
-0.000266807
0.00136191
-0.0328138
0.000665331
-0.000134169
0.0047278
-0.0347928
0.00456094
-0.0143455
-0.0101592
0.00487583
5.19469e-07
0.000100959
0.000643247
0.0238676
-1.92438e-08
0.0202034
-0.0202031
0.000218408
-0.0166314
5.0131e-05
0.0141011
-0.0114379
0.0125999
-0.000334129
0.00930322
-8.87217e-05
0.0103169
-0.00817554
-0.000396784
0.00668566
-0.0001162
0.00725947
-0.005643
-0.000330885
-0.000818163
-0.000487355
-0.000232588
2.08009e-05
5.615e-05
2.34767e-05
0.000158355
0.000110782
0.000133965
-0.00211667
-0.00185715
0.00169434
0.00153174
0.000130569
-0.00162144
-0.000225254
-0.000158198
-0.000121373
-0.000187228
4.75588e-05
0.000133693
0.000396086
-0.00228284
0.000605155
0.000380681
0.000206898
0.000238609
0.000609508
0.00109525
-0.00214792
0.000230435
0.000126979
0.0001255
0.000118746
9.34665e-05
7.58986e-06
-0.000298108
-0.00139201
-0.000687045
-0.00041873
-0.000685345
-5.28434e-05
0.000110387
0.000130084
-0.0122996
0.0137087
3.8727e-08
0.0114931
-0.0114928
6.22134e-05
0.00974252
-4.81059e-08
0.00808177
-0.00808172
3.97451e-05
-0.00599557
-0.000102768
0.00493539
-0.00376922
0.00464545
-0.000256429
4.46902e-05
-0.000360327
-0.000268396
-0.000166863
-0.000178065
9.06979e-05
6.44342e-05
-0.00399115
-7.38774e-05
0.00327434
-0.00246713
0.0031393
-0.0002025
0.000124062
-4.05859e-05
-8.32248e-05
1.96974e-05
0.000107962
0.0002155
0.000600718
0.000378837
0.000235122
0.0010173
-0.000256932
0.000428561
-8.70268e-07
-0.000422385
0.000254325
-0.00101614
-0.000215185
-0.000226186
-5.8976e-07
-8.17383e-08
4.14818e-05
5.24681e-06
3.34378e-05
2.49852e-05
0.000139698
0.00192602
-0.000170423
3.68572e-05
0.000208426
0.00279143
-0.000206163
-0.00011244
-4.64428e-05
0.00011237
0.000149547
0.000183289
0.000260828
0.000134034
5.67431e-05
-0.010992
0.000171531
0.00992118
-0.000495239
-0.00719043
0.000398061
0.00560399
-0.000350704
-0.0045821
-0.00691485
0.000331247
0.00564327
-0.00725917
0.000116084
-0.00668639
0.00873996
-6.23192e-05
-0.00974235
-0.000110215
-2.10697e-07
-1.53008e-08
-7.19097e-07
0.000170026
-0.000169293
-0.000100605
-0.000643167
0.0215511
-0.0238678
-0.000114304
0.00012703
-0.000128078
-0.000168061
2.5852e-05
-2.80711e-08
9.09405e-05
-0.000199421
-6.61292e-05
-0.0001831
-7.3029e-05
6.6651e-05
7.35323e-08
1.11006e-08
-9.09155e-09
-3.90071e-08
-3.33213e-08
4.10029e-09
8.49297e-09
-9.80922e-05
0.000151258
0.00019669
0.000239468
0.00027266
7.53021e-06
-0.00604509
0.000300127
0.00485879
-0.000287676
0.00442376
0.000355137
0.00382814
-0.000269898
-0.00323254
-0.00484674
0.00589651
-0.000118905
-0.000137439
-5.92376e-05
0.000276342
0.000418347
0.000623457
0.000355605
0.000319408
0.0002469
0.000178805
0.000169929
8.74544e-05
0.00012177
4.55452e-05
-3.51511e-06
-0.000431531
-0.000381056
-0.000207147
0.00145915
0.000170469
0.00137471
-0.000133758
-0.000230938
0.00214794
-9.52821e-05
0.000121415
0.000158227
0.000186933
0.000201839
0.000168601
-9.08296e-05
-6.66878e-05
-0.000379952
-0.00581109
-0.00526167
0.0064533
0.00705033
0.00750392
0.000314847
-0.00831479
2.61301e-05
0.0104795
0.000132658
0.000431128
0.0142294
0.00209894
0.00119716
-0.0357614
0.0204587
0.0178272
-0.00167167
0.00720653
0.0121036
0.0212314
0.0178076
-0.00881561
0.0175908
0.0195989
0.0178729
-0.00917647
0.017396
0.0124422
0.0124161
0.00190046
0.003888
0.00292745
0.0020651
0.00125349
0.00126249
0.000649229
-1.81252e-08
-0.00012101
-5.21312e-05
-0.00803935
0.00903972
9.47439e-05
-0.0107798
0.0042289
0.00221832
0.00132182
0.000811429
0.000797155
0.000355477
0.000479866
0.000251276
0.00344859
-0.00288398
0.000206129
0.00211658
-0.000139894
-0.00192613
-0.00196782
-2.38095e-05