/*--------------------------------*- C++ -*----------------------------------*\
| =========                 |                                                 |
| \\      /  F ield         | OpenFOAM: The Open Source CFD Toolbox           |
|  \\    /   O peration     | Version:  2306                                  |
|   \\  /    A nd           | Website:  www.openfoam.com                      |
|    \\/     M anipulation  |                                                 |
\*---------------------------------------------------------------------------*/
FoamFile
{
    version     2.0;
    format      ascii;
    arch        "LSB;label=32;scalar=64";
    class       volScalarField;
    location    "2.1";
    object      gradTz;
}
// * * * * * * * * * * * * * * * * * * * * * * * * * * * * * * * * * * * * * //

dimensions      [0 -1 0 1 0 0 0];

internalField   nonuniform List<scalar> 
2658
(
-0.0751385
-0.0725783
-0.0540215
-0.04912
-0.0609346
-0.0624115
-0.0563844
-0.0543852
-0.0490786
-0.0622265
-0.0619963
-0.0492497
-0.0658979
-0.061642
-0.0637574
-0.06556
-0.0630121
-0.065411
-0.0636943
-0.0608343
-0.0648149
-0.0583795
-0.0667496
-0.0510475
-0.0799162
-0.064687
-0.0578177
-0.0681824
-0.0696113
-0.0572418
-0.0696107
-0.0578177
-0.0646864
-0.0667489
-0.0799162
-0.0510468
-0.0656324
-0.0918548
-0.0583788
-0.0648165
-0.0608351
-0.0636944
-0.0654104
-0.0948514
-0.0601034
-0.059433
-0.0619966
-0.0947656
-0.0655609
-0.0637578
-0.0616414
-0.0658985
-0.0589898
-0.0951744
-0.0659566
-0.0638499
-0.0947728
-0.0597091
-0.0514363
-0.065478
-0.0947738
-0.0638506
-0.0659572
-0.0951747
-0.0613239
-0.0493483
-0.0618334
-0.0556868
-0.0617427
-0.0617414
-0.04988
-0.0553187
-0.0428053
-0.0490983
-0.0376432
-0.0485588
-0.0489626
-0.037593
-0.0427979
-0.0419768
-0.0489616
-0.0427885
-0.0550405
-0.0565641
-0.0462518
-0.0352794
-0.0260481
-0.0185155
-0.0126974
-0.00847868
-0.00567856
-0.00538427
-0.00458261
-0.00380058
-0.00408859
-0.00440276
-0.0040118
-0.00606064
-0.00401468
-0.00407142
-0.00609427
-0.00412247
-0.00445161
-0.0049561
-0.00419249
-0.00455678
-0.00326106
-0.00554594
-0.00355096
-0.00536119
-0.00497059
-0.004063
-0.00557709
-0.00406285
-0.00497061
-0.00536119
-0.0041926
-0.00455679
-0.00445164
-0.00495616
-0.00412241
-0.00609399
-0.00407139
-0.00401467
-0.00395821
-0.00397734
-0.00380045
-0.00440291
-0.0040118
-0.00408871
-0.00607364
-0.00407435
-0.00488228
-0.00404447
-0.00530015
-0.00375484
-0.00363921
-0.00431155
-0.00372316
-0.00372329
-0.00363908
-0.00375484
-0.0041502
-0.00439695
-0.00552691
-0.00439489
-0.00513284
-0.0049592
-0.00352423
-0.00354183
-0.00335208
-0.00475064
-0.00465302
-0.00297919
-0.00401723
-0.00379546
-0.00344157
-0.00378335
-0.00356035
-0.00370595
-0.00382085
-0.00364695
-0.00382338
-0.00370655
-0.00354378
-0.00376687
-0.00343748
-0.00394109
-0.00589983
-0.00505141
-0.00669682
-0.0083947
-0.0103309
-0.0126603
-0.0155815
-0.0189311
-0.0229288
-0.0274468
-0.0325824
-0.0383497
-0.0445672
-0.0514782
-0.0586876
-0.0646244
-0.0625726
-0.0614219
-0.0620101
-0.0622257
-0.060934
-0.0491192
-0.0624122
-0.0618325
-0.0493483
-0.061324
-0.0492499
-0.0803318
-0.0462518
-0.0352793
-0.0260481
-0.0185154
-0.0126973
-0.00847855
-0.00567848
-0.00538432
-0.00458263
-0.00311703
-0.00337109
-0.00537882
-0.00346294
-0.00346294
-0.00337112
-0.00311701
-0.00537885
-0.00322194
-0.00397727
-0.00395822
-0.00439474
-0.00382859
-0.00459293
-0.00313968
-0.00321319
-0.00468232
-0.00536611
-0.00536806
-0.00545891
-0.00536801
-0.00459292
-0.00326101
-0.00351451
-0.00554595
-0.00373967
-0.00373966
-0.00351448
-0.00480988
-0.00341553
-0.00344246
-0.00344241
-0.00537399
-0.0034155
-0.00448439
-0.00423477
-0.00415479
-0.00385562
-0.00437121
-0.00417807
-0.00434929
-0.00600619
-0.00493704
-0.00362471
-0.00513703
-0.0037933
-0.00328723
-0.00401163
-0.00430029
-0.0063568
-0.00704951
-0.00704949
-0.00507495
-0.00884197
-0.00615961
-0.0108001
-0.0133435
-0.00927705
-0.0162438
-0.0198635
-0.0137491
-0.023911
-0.028699
-0.0197298
-0.0340128
-0.0399677
-0.0272816
-0.0465884
-0.0535633
-0.0362883
-0.0610412
-0.0700326
-0.0480403
-0.0736965
-0.0507456
-0.0648413
-0.064841
-0.0681814
-0.0683479
-0.061513
-0.0570683
-0.0819328
-0.0546156
-0.054616
-0.055046
-0.082058
-0.0557621
-0.0557623
-0.0529094
-0.0808604
-0.0672723
-0.0672721
-0.0770881
-0.109005
-0.0770884
-0.0783214
-0.107745
-0.078034
-0.0906839
-0.0790493
-0.0772576
-0.0639929
-0.0747295
-0.0865658
-0.0809032
-0.0529094
-0.0504976
-0.0797466
-0.0642595
-0.0783487
-0.107747
-0.0780838
-0.0866615
-0.0788904
-0.0797308
-0.07889
-0.0797466
-0.0639927
-0.0772579
-0.0780318
-0.107746
-0.0783207
-0.0747305
-0.0865659
-0.0866614
-0.078087
-0.107746
-0.0783497
-0.0642593
-0.0746586
-0.0775995
-0.109086
-0.0771939
-0.0674837
-0.0809777
-0.0528878
-0.0673429
-0.077035
-0.0778836
-0.0490658
-0.037556
-0.0277843
-0.0197745
-0.013574
-0.0090684
-0.00607376
-0.00598743
-0.00652299
-0.0064411
-0.00646146
-0.00649935
-0.00798722
-0.00986631
-0.0120296
-0.0148887
-0.0180039
-0.0219317
-0.0261233
-0.0312151
-0.0365134
-0.0427981
-0.0489616
-0.0565646
-0.0490778
-0.0543853
-0.0563838
-0.0553199
-0.0488854
-0.0384246
-0.0488859
-0.0421357
-0.042709
-0.0414578
-0.0358472
-0.0365942
-0.0277006
-0.0303689
-0.0276576
-0.0365142
-0.0323188
-0.0363971
-0.0362594
-0.0282439
-0.0309077
-0.0308853
-0.0364519
-0.0323449
-0.0422859
-0.0382998
-0.0485972
-0.0556414
-0.0497583
-0.06201
-0.05574
-0.0594333
-0.0947657
-0.0746588
-0.0673423
-0.0528876
-0.0780613
-0.0589208
-0.051641
-0.0484314
-0.0371636
-0.0274902
-0.0195596
-0.0134206
-0.00896355
-0.00600254
-0.00536611
-0.00468228
-0.0032132
-0.00537395
-0.00313962
-0.00382861
-0.00439476
-0.00624974
-0.00480253
-0.00477732
-0.00475229
-0.00484478
-0.0045362
-0.00350228
-0.00510042
-0.00650098
-0.0059593
-0.00813154
-0.00765949
-0.00632965
-0.00589111
-0.00634121
-0.00500326
-0.00502418
-0.00500083
-0.00487653
-0.00472881
-0.00640627
-0.00645813
-0.00530273
-0.00636201
-0.00953288
-0.00970583
-0.0095458
-0.0142767
-0.0146303
-0.0119701
-0.00788612
-0.00766753
-0.00790863
-0.00794526
-0.00977954
-0.00977983
-0.00724308
-0.00790642
-0.00603555
-0.00637301
-0.00953694
-0.0144208
-0.0144019
-0.0211212
-0.0214371
-0.0208106
-0.029289
-0.0302939
-0.0256
-0.0178027
-0.0173288
-0.0179187
-0.0178934
-0.0217387
-0.0216674
-0.0162675
-0.0178847
-0.0147337
-0.0109582
-0.0119328
-0.0090821
-0.0119609
-0.0147629
-0.0109846
-0.0119515
-0.00984994
-0.00725947
-0.00808113
-0.00774015
-0.00884197
-0.00497496
-0.00738132
-0.00431866
-0.00582555
-0.00340619
-0.00433307
-0.0051577
-0.00532579
-0.00505015
-0.00521748
-0.00521397
-0.00622687
-0.00543469
-0.00485956
-0.00486109
-0.00645267
-0.00633005
-0.00800147
-0.00765567
-0.00948722
-0.0143393
-0.021057
-0.0211741
-0.0299374
-0.0298313
-0.0405659
-0.0412808
-0.0397082
-0.0517011
-0.0546006
-0.0472823
-0.0354721
-0.0347056
-0.0364511
-0.0362587
-0.0422859
-0.0419764
-0.0323191
-0.0363968
-0.0307603
-0.023367
-0.0259847
-0.0200225
-0.0259518
-0.0309077
-0.0234004
-0.0260306
-0.0217717
-0.0163003
-0.0180335
-0.0121874
-0.0116426
-0.0133433
-0.00751671
-0.0107999
-0.0061596
-0.0062671
-0.0105296
-0.0129474
-0.0157944
-0.0157941
-0.0112637
-0.0192193
-0.0139806
-0.0231889
-0.0164143
-0.0277518
-0.0200417
-0.0329146
-0.0231031
-0.0386359
-0.0276567
-0.0450162
-0.0313203
-0.0516483
-0.0366553
-0.0594363
-0.0408297
-0.0651705
-0.0470491
-0.0769601
-0.0620068
-0.0769602
-0.0507456
-0.0736952
-0.0480399
-0.0700327
-0.0407612
-0.0610403
-0.0362879
-0.0535631
-0.0314787
-0.0465879
-0.0272817
-0.0399679
-0.0232357
-0.0340125
-0.0197294
-0.0286991
-0.0164945
-0.0239103
-0.0137489
-0.0198637
-0.0112918
-0.0162433
-0.00927694
-0.00943786
-0.0119819
-0.00806502
-0.00561497
-0.00457603
-0.00437325
-0.00488609
-0.00661582
-0.0096256
-0.0142328
-0.020641
-0.0289547
-0.0391129
-0.050696
-0.0611696
-0.0693815
-0.0685456
-0.0685456
-0.0639291
-0.0742315
-0.0600463
-0.0534948
-0.072124
-0.0502905
-0.0605512
-0.0557752
-0.057235
-0.0555728
-0.047049
-0.0651696
-0.0408291
-0.0594363
-0.0479292
-0.0493104
-0.0376881
-0.0313196
-0.0450165
-0.0516471
-0.0366559
-0.0449307
-0.0339328
-0.0276567
-0.038635
-0.0231029
-0.0329153
-0.0269691
-0.0278638
-0.0198392
-0.0136383
-0.0112635
-0.0192186
-0.0231895
-0.0277511
-0.0200412
-0.0246239
-0.0172089
-0.0143504
-0.00959759
-0.00646363
-0.00617806
-0.00507498
-0.00872137
-0.00601592
-0.00872138
-0.00626707
-0.0105295
-0.00754207
-0.0129479
-0.00943792
-0.0116426
-0.00914321
-0.00754188
-0.00884182
-0.00774013
-0.00515772
-0.00582554
-0.00431871
-0.00738148
-0.00433318
-0.00635681
-0.00362466
-0.00430026
-0.00459008
-0.0040117
-0.00328722
-0.00379327
-0.00394108
-0.00513712
-0.00406984
-0.00385575
-0.00453571
-0.00417803
-0.0041547
-0.00437125
-0.00385525
-0.00447926
-0.00420009
-0.00431226
-0.00420004
-0.00385945
-0.00606052
-0.00447935
-0.00448444
-0.00453572
-0.00355096
-0.00385572
-0.00406983
-0.00448775
-0.00413214
-0.00384081
-0.0044884
-0.00436397
-0.00416345
-0.00443314
-0.00336306
-0.004519
-0.00450356
-0.0060081
-0.00421086
-0.00477115
-0.00535595
-0.0054079
-0.00486131
-0.00645255
-0.00958369
-0.0143369
-0.0208798
-0.0208944
-0.0293472
-0.039652
-0.0517402
-0.0752607
-0.0692552
-0.103319
-0.0615127
-0.0683492
-0.0933971
-0.0779385
-0.0779366
-0.0933975
-0.099185
-0.0607743
-0.079676
-0.0787799
-0.0802785
-0.051391
-0.0654026
-0.073957
-0.078932
-0.108162
-0.0791019
-0.0917276
-0.07679
-0.0854729
-0.0780697
-0.0804219
-0.0806188
-0.0864199
-0.10337
-0.0806214
-0.0991852
-0.0796774
-0.0607736
-0.0539455
-0.0802781
-0.065402
-0.0513906
-0.0522074
-0.0809778
-0.0674849
-0.0771928
-0.109085
-0.0776005
-0.086412
-0.0800692
-0.0804219
-0.0813062
-0.0819977
-0.0539452
-0.080969
-0.0798542
-0.0858311
-0.0800708
-0.0778379
-0.0864119
-0.0769694
-0.0809034
-0.0504977
-0.0780612
-0.0589208
-0.0557399
-0.0591556
-0.0536767
-0.04074
-0.0464711
-0.0490469
-0.0485962
-0.0556424
-0.0550398
-0.0427886
-0.0489613
-0.038299
-0.0465934
-0.0406484
-0.0298014
-0.0347535
-0.0249786
-0.017314
-0.0116101
-0.0116273
-0.0148206
-0.013573
-0.0121525
-0.0116176
-0.00891789
-0.0121183
-0.0148626
-0.0134054
-0.0180626
-0.0174641
-0.0145651
-0.0133679
-0.0213974
-0.0196194
-0.026178
-0.0254649
-0.0195826
-0.0303687
-0.0277003
-0.0365944
-0.035847
-0.0276575
-0.0414576
-0.0376429
-0.0490988
-0.0485585
-0.0375932
-0.0487298
-0.0537667
-0.0725412
-0.0722096
-0.0630135
-0.0589953
-0.0516865
-0.0626308
-0.0542632
-0.0540215
-0.0409202
-0.0300266
-0.0212374
-0.0144982
-0.00964209
-0.00950503
-0.0116712
-0.0109641
-0.0119984
-0.00916703
-0.011999
-0.0147689
-0.0137477
-0.0179276
-0.017927
-0.0147694
-0.0133664
-0.00894011
-0.006024
-0.00545361
-0.00503111
-0.00508158
-0.00492617
-0.00422707
-0.00492659
-0.00664679
-0.00616036
-0.00800036
-0.00799967
-0.00664733
-0.00545957
-0.00680553
-0.00433778
-0.00433746
-0.00374779
-0.00407998
-0.0068057
-0.00510057
-0.00350202
-0.0045362
-0.00632954
-0.00595951
-0.00766001
-0.00813114
-0.00650142
-0.00508163
-0.00545362
-0.0053258
-0.00607381
-0.00497497
-0.00669681
-0.0059874
-0.00790869
-0.00725943
-0.00977952
-0.00908235
-0.0119331
-0.0109585
-0.0147337
-0.0148888
-0.0133685
-0.0174649
-0.0180625
-0.013406
-0.0145651
-0.0116182
-0.0121181
-0.00891825
-0.00969133
-0.00887324
-0.0120299
-0.00986628
-0.00977982
-0.00790653
-0.00724327
-0.00798744
-0.00589134
-0.00649937
-0.00646144
-0.00603554
-0.00794534
-0.00644115
-0.00652302
-0.00480253
-0.00505011
-0.00477726
-0.00337826
-0.00475238
-0.00503105
-0.00484465
-0.00316034
-0.00370596
-0.00382085
-0.00622693
-0.00521408
-0.00521751
-0.00530286
-0.00472886
-0.0045761
-0.00561503
-0.00806508
-0.00640615
-0.00954625
-0.011982
-0.0176353
-0.0142774
-0.0208115
-0.0251926
-0.0251924
-0.017635
-0.0139804
-0.0346804
-0.0346806
-0.0292897
-0.0397084
-0.0458624
-0.0458611
-0.057249
-0.0572497
-0.0517008
-0.0639297
-0.0742393
-0.0600461
-0.0646265
-0.0494349
-0.0625722
-0.0557752
-0.0601034
-0.0516863
-0.0770351
-0.0778836
-0.049066
-0.0375562
-0.0277844
-0.0197747
-0.0135741
-0.00906845
-0.00751678
-0.010331
-0.00901813
-0.0119516
-0.0109849
-0.0147628
-0.0136784
-0.0178851
-0.0162674
-0.0216676
-0.0219317
-0.019583
-0.0254652
-0.0261776
-0.0196197
-0.0213972
-0.0219046
-0.0162729
-0.0217122
-0.0200931
-0.0260106
-0.0260104
-0.0217125
-0.0162731
-0.021904
-0.0173497
-0.0145958
-0.00974219
-0.00659791
-0.00493215
-0.00546005
-0.00486018
-0.00401462
-0.00298183
-0.00485367
-0.00529962
-0.0040451
-0.00488261
-0.00450338
-0.00407448
-0.00607358
-0.00356014
-0.00378326
-0.00600777
-0.0034415
-0.00379541
-0.004859
-0.00500312
-0.00502398
-0.00500073
-0.00354374
-0.00370659
-0.00624971
-0.00382338
-0.00364714
-0.0032441
-0.00505143
-0.00340621
-0.00589983
-0.00376692
-0.00343732
-0.00487612
-0.00636203
-0.00645815
-0.00788638
-0.00839483
-0.00766773
-0.00985011
-0.00953312
-0.00970658
-0.0119703
-0.0126607
-0.0155816
-0.0135729
-0.017919
-0.0163003
-0.021772
-0.0217388
-0.020023
-0.0259851
-0.0233665
-0.0307609
-0.031215
-0.0261239
-0.0249786
-0.0249769
-0.0260311
-0.0234006
-0.0259524
-0.0195596
-0.0134208
-0.00896364
-0.00600258
-0.00808116
-0.0121874
-0.0180335
-0.017209
-0.024624
-0.0258173
-0.0258173
-0.0355761
-0.0323441
-0.0421264
-0.0379663
-0.0470131
-0.0427955
-0.055264
-0.0494343
-0.0483745
-0.0365999
-0.0265397
-0.0185245
-0.0125111
-0.00829
-0.00725972
-0.00983619
-0.00983548
-0.00983497
-0.0098369
-0.00725962
-0.00829003
-0.0125111
-0.0109642
-0.0148632
-0.0116717
-0.00776775
-0.00645267
-0.00964216
-0.0144986
-0.01735
-0.0181172
-0.0121528
-0.0116106
-0.0116277
-0.0148208
-0.014402
-0.014631
-0.0178032
-0.0189316
-0.0229289
-0.0198562
-0.0274473
-0.0325822
-0.0279975
-0.0383511
-0.0445674
-0.0379672
-0.0490477
-0.0427956
-0.0552645
-0.0586878
-0.0407616
-0.0514789
-0.0314789
-0.0472832
-0.0354725
-0.0256004
-0.0214385
-0.0211218
-0.0298324
-0.0302966
-0.0405677
-0.0412843
-0.0534967
-0.0545984
-0.0721271
-0.0502905
-0.0656321
-0.0918558
-0.07679
-0.0791012
-0.108161
-0.0789325
-0.0739572
-0.0948521
-0.0605523
-0.0589958
-0.0614231
-0.0484315
-0.0371638
-0.0274903
-0.0293276
-0.0396104
-0.0470132
-0.0449307
-0.0339329
-0.0355762
-0.0366
-0.0273728
-0.0194744
-0.0265398
-0.0185246
-0.0233774
-0.031172
-0.0308412
-0.0283338
-0.0363973
-0.0363971
-0.0308413
-0.0233772
-0.0311715
-0.0250085
-0.0261329
-0.021084
-0.0181171
-0.0143561
-0.0363588
-0.0298767
-0.0347901
-0.0427085
-0.042136
-0.0323376
-0.037013
-0.0482515
-0.0768896
-0.0741513
-0.0550461
-0.077363
-0.0572351
-0.0555729
-0.0809695
-0.0570687
-0.0819973
-0.0798543
-0.0858306
-0.0854721
-0.0787819
-0.0917277
-0.0780705
-0.0778388
-0.0817125
-0.0803318
-0.0597087
-0.059136
-0.0539859
-0.0466261
-0.0428051
-0.0591356
-0.0725783
-0.0751403
-0.0615801
-0.072335
-0.0654782
-0.0630741
-0.0556866
-0.0410238
-0.0301566
-0.0213523
-0.0250087
-0.0212378
-0.0300261
-0.0347902
-0.0323379
-0.0363591
-0.0261332
-0.0210573
-0.0143398
-0.00948745
-0.00634129
-0.00637287
-0.00953702
-0.0144209
-0.0173294
-0.0178938
-0.0211746
-0.029938
-0.0347064
-0.0421264
-0.0464717
-0.0465927
-0.0347545
-0.0298017
-0.0406488
-0.0407414
-0.0536784
-0.0722116
-0.0591549
-0.0537684
-0.0725415
-0.0626315
-0.0487299
-0.0466267
-0.0409204
-0.04084
-0.0542639
-0.0298789
-0.0173143
-0.0180043
-0.00765598
-0.00800171
-0.0054346
-0.00633057
-0.00950564
-0.0143569
-0.0210874
-0.0483745
-0.0408357
-0.0232359
-0.0164946
-0.0112921
-0.011961
-0.00776762
-0.00969137
-0.008873
-0.00384083
-0.0041322
-0.00448776
-0.0044332
-0.00424045
-0.00416371
-0.00436412
-0.00448843
-0.00385926
-0.00451897
-0.00336276
-0.00431154
-0.00465965
-0.00374763
-0.00408009
-0.00415161
-0.00485159
-0.0249761
-0.0308852
-0.0279976
-0.0497572
-0.0522074
-0.0773629
-0.0769658
-0.00322191
-0.00320523
-0.0164144
-0.0191638
-0.0131634
-0.0365902
-0.0198556
-0.0282436
-0.00901794
-0.0136781
-0.00324418
-0.00337825
-0.00316012
-0.0790491
-0.0906839
-0.0769169
-0.0776048
-0.0769157
-0.0589902
-0.061581
0.00485939
0.004861
0.00645255
0.00595935
0.0063296
0.0065009
0.00813162
0.00765942
0.00589105
0.0064994
0.00484474
0.00316014
0.00378348
0.00356048
0.00370604
0.00382093
0.00364714
0.00382344
0.00370667
0.00354392
0.00376704
0.00343772
0.00394117
0.00340616
0.00513709
0.00379336
0.00328725
0.00406979
0.00401164
0.00320536
0.0040116
0.00328721
0.00379331
0.00394117
0.00513711
0.00340618
0.00505142
0.00589978
0.0034376
0.00376705
0.00354393
0.00370669
0.00382345
0.00624977
0.00477721
0.00475227
0.00484461
0.0062268
0.00382095
0.00370602
0.00356042
0.00378342
0.00344184
0.00600781
0.00379553
0.00408001
0.00680563
0.00492659
0.00422701
0.00433776
0.00680547
0.00408009
0.00379539
0.00600808
0.00453612
0.00350214
0.00510037
0.00508166
0.0066474
0.00664676
0.00616032
0.00799959
0.00725966
0.00983616
0.008918
0.00969134
0.0098663
0.00887292
0.0120293
0.0119326
0.0097797
0.00724308
0.00790638
0.00798706
0.00567846
0.00847851
0.0126972
0.0185153
0.0260479
0.0352792
0.0462515
0.0803318
0.0797464
0.0642594
0.0783502
0.0746584
0.0776
0.109086
0.0771932
0.078932
0.108163
0.0791009
0.0767901
0.0917275
0.0796759
0.0787802
0.0539451
0.0809689
0.060774
0.099185
0.0933969
0.0779385
0.103371
0.077936
0.0933972
0.0991844
0.0796765
0.0787802
0.0767901
0.0917276
0.0791009
0.10816
0.0789319
0.0771933
0.0674837
0.0673428
0.0642591
0.0746585
0.0775999
0.0783504
0.107746
0.0780866
0.0906843
0.0780315
0.107745
0.0783212
0.0770877
0.0747305
0.0672722
0.0672723
0.077088
0.0783215
0.107744
0.0780339
0.0906837
0.079049
0.0780842
0.107746
0.0616412
0.0658973
0.0951744
0.0589894
0.065957
0.0615802
0.0638501
0.065478
0.0630737
0.0654781
0.0514363
0.0597089
0.0597091
0.0947727
0.0638499
0.0615795
0.0659571
0.0589911
0.0658983
0.0616407
0.0637574
0.0655595
0.0630112
0.0654106
0.0636938
0.0608342
0.0648143
0.0583805
0.066748
0.0918549
0.065632
0.0646254
0.0586871
0.051479
0.0445665
0.038351
0.0325821
0.0274475
0.0229286
0.0189314
0.0155815
0.0126606
0.0103309
0.0083948
0.00669673
0.00652303
0.00644104
0.00646144
0.00649924
0.00632948
0.0059594
0.00650138
0.00510048
0.00350211
0.00453614
0.00316034
0.00538429
0.00567852
0.00847862
0.0126973
0.0185154
0.026048
0.0352791
0.0462515
0.0803317
0.0797464
0.0504977
0.0529092
0.078061
0.0557623
0.0557619
0.0529092
0.0504976
0.0780611
0.0528875
0.0673422
0.0674841
0.073957
0.0654016
0.0802781
0.0513907
0.0522074
0.0809776
0.0770349
0.0778834
0.0752605
0.0778834
0.080278
0.0539449
0.0570679
0.0809688
0.0615126
0.0615125
0.0570678
0.0819327
0.0546161
0.0550459
0.0550456
0.0773628
0.0546156
0.0798539
0.0813066
0.0804212
0.0780692
0.0854728
0.0806192
0.0864203
0.103318
0.069255
0.050745
0.0799159
0.064686
0.0578168
0.0696109
0.0648403
0.0769594
0.0651696
0.0651692
0.0408295
0.0610401
0.0362871
0.0535629
0.046588
0.0272816
0.0399675
0.0340125
0.0197295
0.0286989
0.0239106
0.0137489
0.0198634
0.0162436
0.00927692
0.0133433
0.0107999
0.00615946
0.00884186
0.00738133
0.00431864
0.00582548
0.00362471
0.00430015
0.00430017
0.00406973
0.00385579
0.00373968
0.00351451
0.00480985
0.00341547
0.00341549
0.00344244
0.00486126
0.0034629
0.0034629
0.0033711
0.0047711
0.00372312
0.00372324
0.00363912
0.00513293
0.00439494
0.00439696
0.00485363
0.00529975
0.00404529
0.00488302
0.00407476
0.00607387
0.00408877
0.00380061
0.00458262
0.00336278
0.00451901
0.00450351
0.00436414
0.00448853
0.00401205
0.00606106
0.00401489
0.00395824
0.00468226
0.00322191
0.00397725
0.00440267
0.00536614
0.00536803
0.00607377
0.00906836
0.013574
0.0197746
0.0277842
0.037556
0.0490656
0.0494346
0.0625723
0.0614224
0.0620098
0.0622254
0.0565644
0.0489612
0.0427979
0.0365133
0.0312149
0.0261236
0.0219315
0.0180041
0.0148886
0.0120297
0.00986618
0.00798737
0.00589122
0.00765972
0.00813104
0.00800034
0.00983491
0.00916686
0.00983559
0.0119982
0.0121183
0.0116176
0.014565
0.0148626
0.0134054
0.0174642
0.0133678
0.0148886
0.0109583
0.0147335
0.0147628
0.0136779
0.0178931
0.0179183
0.0148207
0.0109845
0.0119606
0.00908221
0.00977947
0.00794517
0.00603538
0.00646145
0.00503103
0.00475221
0.00622682
0.00440283
0.00408873
0.00607381
0.0040745
0.00488251
0.00404456
0.00530018
0.00485149
0.0041517
0.00363919
0.00375478
0.0043115
0.00336305
0.00311703
0.00458265
0.00451897
0.00380049
0.00397731
0.00322193
0.00537883
0.00337107
0.00535594
0.00602398
0.00894003
0.0133663
0.0194743
0.0273728
0.037013
0.0482512
0.0768896
0.0808603
0.0797305
0.0788899
0.0769673
0.0864113
0.07784
0.109085
0.0858301
0.0654029
0.0513907
0.052207
0.0773627
0.0572349
0.0557749
0.0601035
0.0594327
0.0619964
0.061324
0.0493486
0.0618327
0.0624118
0.0491197
0.0563837
0.0543853
0.0609338
0.049078
0.0537666
0.0725414
0.0722106
0.0721273
0.0742395
0.0639294
0.0517009
0.0546015
0.0600461
0.0534969
0.0405657
0.0412818
0.0397095
0.0292894
0.0302952
0.0354732
0.0472815
0.0464707
0.0552643
0.0556412
0.0485964
0.048961
0.0427884
0.0550398
0.0497578
0.0484312
0.0770348
0.0809773
0.0528877
0.0809033
0.0800709
0.0798539
0.0819978
0.0607736
0.068347
0.0681817
0.0685442
0.0693808
0.0611695
0.0506958
0.0391125
0.0289548
0.0206411
0.014233
0.00962553
0.0066158
0.00488599
0.00437319
0.004576
0.00457599
0.00472883
0.00640624
0.00954598
0.014277
0.0208112
0.0214376
0.0256007
0.0298322
0.0211215
0.0144019
0.0146304
0.0178031
0.017329
0.0217719
0.0217386
0.0178936
0.0178848
0.0162673
0.0216674
0.0259848
0.0233666
0.0307605
0.0363965
0.0323191
0.0419766
0.0382987
0.0422859
0.0362588
0.0323451
0.0421267
0.0490462
0.0427955
0.0470129
0.0371634
0.02749
0.0282437
0.0309076
0.025952
0.0234004
0.0308855
0.036451
0.0279978
0.0347061
0.0407406
0.0536771
0.0589948
0.0605515
0.0948515
0.073957
0.0502904
0.059155
0.0947651
0.0626312
0.0751389
0.0725785
0.0540222
0.05427
0.0487283
0.0465922
0.0406482
0.0298014
0.0299375
0.0211743
0.0144207
0.00953684
0.00953299
0.00970583
0.0119703
0.0116273
0.0148206
0.0147627
0.0119608
0.0119327
0.0109583
0.0147337
0.0136781
0.0134206
0.0195595
0.0200228
0.0180334
0.0163001
0.0179186
0.0135729
0.0172089
0.023911
0.0164946
0.0286989
0.0197298
0.0340133
0.0232356
0.0399677
0.0272822
0.046589
0.0314787
0.0535627
0.0362879
0.0610407
0.0407615
0.070032
0.0480399
0.073695
0.0510467
0.0470491
0.0555727
0.0555726
0.073695
0.0480398
0.0700321
0.047049
0.0769601
0.0507449
0.0648404
0.0620064
0.0696112
0.057817
0.0646862
0.0667485
0.079916
0.0681814
0.0683488
0.0819976
0.0806201
0.0804227
0.0854723
0.0780674
0.0858299
0.0800691
0.0817125
0.0820579
0.0741511
0.0516409
0.05174
0.0493103
0.0408295
0.0594354
0.051648
0.0450159
0.0386361
0.0386351
0.0231034
0.0329151
0.0200412
0.0277513
0.0164144
0.0231891
0.0139805
0.019219
0.0112635
0.0157944
0.00943798
0.0129475
0.00754201
0.0105295
0.00626688
0.00872122
0.00507505
0.00704949
0.00433304
0.00635675
0.00459008
0.00635677
0.00362466
0.00582546
0.00431863
0.00738147
0.00497502
0.0088419
0.00615958
0.0108
0.00751678
0.0133434
0.0092769
0.0162437
0.0112919
0.0198637
0.0137491
0.0139807
0.0192191
0.0131635
0.0157941
0.0129478
0.0105293
0.00872139
0.00601597
0.00704951
0.00433311
0.0051577
0.0077401
0.006267
0.00806495
0.011982
0.0176354
0.025193
0.034681
0.0458618
0.057249
0.0572486
0.0685453
0.0639296
0.0516999
0.0458613
0.0594363
0.0366554
0.051647
0.0313194
0.0450166
0.0276566
0.0339327
0.0376879
0.0313196
0.0365901
0.0278637
0.0231033
0.0329145
0.027752
0.023189
0.0164144
0.0198392
0.019164
0.0136383
0.0112635
0.00914321
0.00754202
0.00884161
0.00617805
0.00507495
0.00493702
0.00600622
0.00373967
0.00385578
0.00497082
0.00406325
0.00406308
0.00497082
0.00536134
0.00355099
0.00419259
0.00455682
0.00459291
0.00313962
0.00382856
0.00439481
0.00407162
0.00609436
0.00412269
0.00495647
0.00445165
0.00437129
0.00385543
0.0041548
0.00417811
0.00434934
0.00557762
0.00417819
0.00536148
0.00419281
0.00355099
0.00326109
0.00459291
0.00382859
0.00313967
0.00321321
0.00468228
0.00395826
0.0040148
0.0060609
0.00401207
0.00448851
0.00420005
0.00415469
0.00423473
0.0045357
0.00326102
0.00554592
0.0044844
0.00447938
0.00420002
0.00385955
0.0043122
0.0044844
0.00453569
0.0035145
0.00554597
0.00515769
0.00646362
0.00959754
0.0143504
0.0208943
0.0293471
0.039652
0.0449305
0.0366561
0.0449304
0.0490657
0.0407618
0.064625
0.0494342
0.0552641
0.0427955
0.0485957
0.0382988
0.0419762
0.0323184
0.0363964
0.036513
0.0276574
0.0303684
0.0311716
0.0277002
0.0358465
0.0414573
0.0427084
0.0376425
0.0485579
0.0375924
0.0427977
0.0489615
0.0489605
0.0550399
0.0427889
0.0565637
0.0490786
0.0543848
0.0563836
0.0491192
0.0609339
0.0622257
0.0620093
0.0497576
0.0556415
0.061422
0.0625718
0.0605516
0.055775
0.0601034
0.0516862
0.059433
0.0557399
0.0619961
0.0492497
0.061324
0.0618332
0.0493478
0.0725783
0.0723347
0.059136
0.0556866
0.0617415
0.0498804
0.0553189
0.0553192
0.0428043
0.0490982
0.0376422
0.0427085
0.0414575
0.0485575
0.0375929
0.0358468
0.0277005
0.0311718
0.0303685
0.0276579
0.0254651
0.0196198
0.0219044
0.0213969
0.0195828
0.0210571
0.0143396
0.00948723
0.00634111
0.00637289
0.0063619
0.00645814
0.00788648
0.00766761
0.0098501
0.00977945
0.00794536
0.00790634
0.00724298
0.00977985
0.00908219
0.00896353
0.00600255
0.00603537
0.00532578
0.00505013
0.00480244
0.0032442
0.00500069
0.00487611
0.00530271
0.00521734
0.00502398
0.00364733
0.00337826
0.00521398
0.00765567
0.0116103
0.017314
0.0249785
0.0347538
0.0363595
0.0408397
0.0409204
0.030025
0.0298762
0.0261331
0.025008
0.0347897
0.0365938
0.0363968
0.0283339
0.030841
0.0308411
0.023377
0.0260105
0.0200926
0.0217121
0.021712
0.0162728
0.0180622
0.0134056
0.0148631
0.014565
0.0174648
0.0133681
0.0181172
0.0210859
0.0212374
0.0144983
0.0143535
0.0121526
0.0116713
0.0121179
0.0089181
0.00983675
0.00969121
0.0116179
0.00887307
0.00800145
0.00950536
0.00964219
0.00645249
0.00632992
0.00543451
0.00500308
0.00485913
0.00486024
0.00401471
0.00298186
0.0035242
0.00335202
0.00354185
0.00297936
0.00401723
0.00374765
0.00465313
0.00493208
0.00659795
0.0077678
0.00725952
0.00828996
0.00808112
0.00725948
0.00790856
0.00598734
0.0121873
0.0109847
0.0119514
0.00901786
0.0116426
0.00943789
0.0116425
0.0172088
0.024624
0.0277841
0.0375558
0.0314786
0.0514777
0.0379663
0.0421261
0.0323445
0.0362581
0.0282433
0.0307602
0.0233663
0.0259843
0.026123
0.0195825
0.021397
0.0219041
0.0196192
0.0254647
0.0261775
0.023377
0.0260103
0.0250083
0.0301562
0.0410235
0.0539856
0.0466251
0.0466263
0.0591347
0.0556866
0.0624112
0.061742
0.0589208
0.0572349
0.0470129
0.0484313
0.0371634
0.0396103
0.0355762
0.0339328
0.0276565
0.0246239
0.0200415
0.0258172
0.0293274
0.0208798
0.0143368
0.0095836
0.00645252
0.00540791
0.00545891
0.00536804
0.00607376
0.00906835
0.013574
0.0197745
0.0164944
0.0274466
0.0198558
0.0217716
0.0163
0.0217386
0.0200225
0.0216673
0.0162673
0.0178845
0.0180036
0.0219315
0.0173135
0.0173285
0.0178023
0.0208112
0.0292893
0.0397088
0.0346802
0.0251925
0.0176351
0.0119818
0.0142771
0.00954588
0.00806505
0.00561494
0.006406
0.00472874
0.00487652
0.00530256
0.00669678
0.00598735
0.00652292
0.00505005
0.00477722
0.00337821
0.00536613
0.0060025
0.0089635
0.0134205
0.0195595
0.02749
0.035576
0.0258172
0.0234002
0.0260301
0.0259515
0.0309074
0.0308852
0.032582
0.0279969
0.03835
0.0232356
0.044567
0.0354715
0.0472808
0.058687
0.0600472
0.0656321
0.0502903
0.0648162
0.0583785
0.0918549
0.0742331
0.0721236
0.0608337
0.0636942
0.0948514
0.0654103
0.0630136
0.0655608
0.0947651
0.0637577
0.0725408
0.0722093
0.0589961
0.0534947
0.0546006
0.0405652
0.0412829
0.0298307
0.0302945
0.0255996
0.0249756
0.0347055
0.0364506
0.0422858
0.0464703
0.0490464
0.0536759
0.0407397
0.0299367
0.0211738
0.0211208
0.0214373
0.0144013
0.0135726
0.0155814
0.0126604
0.00901776
0.00985003
0.00725939
0.00790857
0.00839472
0.00497496
0.0103309
0.0075167
0.00788632
0.0119699
0.0146305
0.0116271
0.0119512
0.00953288
0.00970611
0.00636203
0.00645771
0.00500089
0.00324414
0.00505131
0.00589977
0.00445182
0.00412265
0.00609444
0.00407165
0.0043949
0.00624975
0.00480248
0.00521733
0.00644113
0.00766741
0.00765546
0.0116098
0.0144204
0.0095367
0.00637286
0.00502414
0.00521378
0.00634111
0.00948703
0.0143392
0.0210566
0.029801
0.040648
0.0537663
0.0591558
0.0626316
0.0540211
0.0409194
0.0347901
0.0421357
0.0421356
0.0384243
0.0488845
0.0490976
0.0428049
0.0483743
0.0483742
0.0589208
0.0557399
0.0365997
0.032337
0.0365997
0.0323369
0.0365938
0.0363968
0.0265395
0.0265396
0.0185244
0.0185244
0.0180333
0.0121873
0.00808108
0.00774008
0.00532578
0.00537396
0.00344243
0.0054536
0.00828995
0.0125111
0.0125111
0.0109641
0.014769
0.0137473
0.0147694
0.0109641
0.0116714
0.0145955
0.0173495
0.0179274
0.017927
0.0180625
0.0162728
0.0173497
0.0213519
0.0212372
0.0300257
0.0261328
0.0363583
0.034753
0.046592
0.0487282
0.0542688
0.040839
0.0249777
0.0312147
0.0298784
0.0210871
0.0181165
0.014498
0.00964201
0.00974217
0.00776761
0.00800129
0.0121525
0.0143552
0.00950518
0.00543462
0.00632989
0.00545961
0.0049261
0.00545995
0.00508161
0.00545358
0.00503098
0.00537881
0.00311702
0.0044877
0.00413217
0.00384064
0.00421083
0.00448772
0.00443312
0.00413213
0.00384028
0.0043641
0.00416336
0.00424041
0.00416382
0.0044332
0.00375486
0.00415025
0.00374782
0.0043374
0.00495913
0.00465979
0.00475059
0.00431155
0.00552666
0.00450379
0.00500324
0.0119989
0.0053843
0.0488848
0.0751387
0.0044794
0.00437125
0.00455688
0.00495657
0.00385552
0.00385942
0.0112918
0.0189311
0.0229283
0.0510466
0.00561495
0.0947732
0.0747296
0.0639924
0.0772578
0.0866607
0.0788901
0.0809032
0.0865654
0.0776047
0.0865651
0.0769173
0.0866605
0.0772578
0.0639928
0.0790488
0.0951741
0.109005
0.0769157
0.0864115
0.0778412
0.0769678
0.0261775
0.0249762
0.0260305
0.0198561
0.00537393
0.0032132
0.0269688
0.0479303
0.0572431
0.0379659
0.0516863
0.0492498
0.00344159
)
;

boundaryField
{
    face
    {
        type            calculated;
        value           nonuniform List<scalar> 
154
(
-0.08
-0.08
-0.08
-0.08
-0.08
-0.08
-0.08
-0.08
-0.08
-0.08
-0.08
-0.08
-0.08
-0.08
-0.08
-0.08
-0.08
-0.08
-0.08
-0.08
-0.08
-0.08
-0.08
-0.08
-0.08
-0.08
-0.08
-0.08
-0.08
-0.08
-0.08
-0.08
-0.08
-0.08
-0.08
-0.08
-0.08
-0.08
-0.08
-0.08
-0.08
-0.08
-0.08
-0.08
-0.08
-0.08
-0.08
-0.08
-0.08
-0.08
-0.08
-0.08
-0.08
-0.08
-0.08
-0.08
-0.08
-0.08
-0.08
-0.08
-0.08
-0.08
-0.08
-0.08
-0.08
-0.08
-0.08
-0.08
-0.08
-0.08
-0.08
-0.08
-0.08
-0.08
-0.08
-0.08