/*--------------------------------*- C++ -*----------------------------------*\
| =========                 |                                                 |
| \\      /  F ield         | OpenFOAM: The Open Source CFD Toolbox           |
|  \\    /   O peration     | Version:  2306                                  |
|   \\  /    A nd           | Website:  www.openfoam.com                      |
|    \\/     M anipulation  |                                                 |
\*---------------------------------------------------------------------------*/
FoamFile
{
    version     2.0;
    format      ascii;
    arch        "LSB;label=32;scalar=64";
    class       volVectorField;
    location    "0.7";
    object      flux;
}
// * * * * * * * * * * * * * * * * * * * * * * * * * * * * * * * * * * * * * //

dimensions      [0 1 -1 1 0 0 0];

internalField   nonuniform List<vector> 
2658
(
(9.61949e-07 9.39694e-07 -7.74153e-06)
(1.42795e-06 5.55501e-07 -7.29456e-06)
(4.56109e-07 1.66164e-07 -4.34787e-06)
(6.07921e-09 -3.9182e-09 -3.87532e-06)
(-1.5118e-06 -1.48917e-06 -5.1547e-06)
(-1.2716e-06 1.8073e-06 -5.25365e-06)
(1.14668e-06 -1.34095e-06 -4.1418e-06)
(1.1391e-06 1.13234e-06 -4.02252e-06)
(-9.31798e-09 1.00398e-08 -3.87225e-06)
(1.79783e-06 -1.2902e-06 -5.24065e-06)
(-1.33887e-06 3.68945e-07 -5.8688e-06)
(-1.06625e-06 -3.60492e-06 -5.07677e-06)
(7.92965e-07 2.33319e-06 -7.15726e-06)
(9.00526e-07 2.36681e-06 -6.81936e-06)
(6.76229e-07 1.94515e-06 -6.88488e-06)
(-3.0772e-08 1.98351e-06 -7.0637e-06)
(-2.78476e-08 2.15093e-06 -6.96918e-06)
(-3.01997e-08 1.95647e-06 -7.04946e-06)
(-7.33907e-07 1.98966e-06 -6.86684e-06)
(-9.75277e-07 2.33826e-06 -6.72513e-06)
(-9.65752e-07 2.26548e-06 -7.0334e-06)
(-2.23974e-06 2.00745e-06 -6.33903e-06)
(-2.60732e-06 6.80313e-07 -7.17838e-06)
(1.89206e-06 -3.94615e-07 -5.18368e-06)
(-7.69825e-07 6.82339e-07 -8.25818e-06)
(-1.06163e-06 2.14697e-06 -7.03463e-06)
(-2.27794e-06 -4.47928e-07 -6.38528e-06)
(-2.98951e-07 1.39785e-07 -7.29575e-06)
(-1.66636e-06 1.75042e-06 -7.57398e-06)
(-1.83722e-06 -9.0806e-11 -6.41315e-06)
(-1.66633e-06 -1.75045e-06 -7.5739e-06)
(-2.27799e-06 4.47935e-07 -6.38527e-06)
(-1.06167e-06 -2.1471e-06 -7.03455e-06)
(-2.60744e-06 -6.80327e-07 -7.17826e-06)
(-7.69765e-07 -6.82328e-07 -8.25814e-06)
(1.89204e-06 3.94655e-07 -5.18357e-06)
(-8.40006e-07 -4.01855e-08 -6.27756e-06)
(4.63311e-07 1.87744e-07 -9.50026e-06)
(-2.2394e-06 -2.00806e-06 -6.33894e-06)
(-9.66025e-07 -2.2656e-06 -7.03356e-06)
(-9.75271e-07 -2.33842e-06 -6.72522e-06)
(-7.33873e-07 -1.98973e-06 -6.86684e-06)
(-3.03571e-08 -1.95632e-06 -7.04938e-06)
(7.21244e-08 9.33507e-07 -9.66184e-06)
(-1.06918e-06 -5.34903e-08 -5.65575e-06)
(9.99897e-07 1.05471e-08 -5.59705e-06)
(-1.33884e-06 -3.68969e-07 -5.86882e-06)
(-5.87634e-08 9.73377e-07 -9.66182e-06)
(-3.0997e-08 -1.98386e-06 -7.06379e-06)
(6.76228e-07 -1.94517e-06 -6.88491e-06)
(9.00542e-07 -2.36666e-06 -6.81928e-06)
(7.92911e-07 -2.33322e-06 -7.15734e-06)
(2.12758e-06 -2.10537e-06 -6.42053e-06)
(-4.29265e-07 4.18569e-07 -9.89072e-06)
(2.34974e-06 -7.89071e-07 -7.1641e-06)
(1.953e-06 -6.92157e-07 -6.89095e-06)
(-9.8612e-07 5.43554e-08 -9.66024e-06)
(7.47343e-09 -1.01176e-06 -5.62033e-06)
(-3.361e-06 -1.13128e-11 -5.25596e-06)
(1.96235e-06 4.86879e-09 -7.0561e-06)
(-9.86054e-07 -5.43175e-08 -9.66033e-06)
(1.95304e-06 6.92147e-07 -6.89103e-06)
(2.34972e-06 7.89127e-07 -7.16414e-06)
(-4.29175e-07 -4.18619e-07 -9.89071e-06)
(3.55264e-07 3.57523e-07 -5.94186e-06)
(-3.60699e-06 -1.03709e-06 -5.08671e-06)
(3.46133e-07 -1.33383e-06 -5.85501e-06)
(-9.02451e-08 -7.40113e-08 -4.95789e-06)
(-9.56594e-07 -2.0038e-06 -5.18431e-06)
(-9.56701e-07 2.00381e-06 -5.1842e-06)
(-2.42577e-10 1.63081e-11 -3.91433e-06)
(8.16635e-07 1.46731e-06 -4.04556e-06)
(-9.79294e-08 -2.58342e-08 -2.88557e-06)
(-7.60786e-07 1.03329e-06 -3.06784e-06)
(4.37692e-08 5.8031e-09 -2.16266e-06)
(-8.07381e-07 -7.91389e-07 -3.04267e-06)
(1.02354e-06 -7.78313e-07 -3.05897e-06)
(2.9318e-09 4.8629e-08 -2.15941e-06)
(-7.40855e-07 6.27979e-07 -2.2506e-06)
(8.1808e-07 4.0654e-07 -2.1976e-06)
(-1.18276e-06 -5.24487e-07 -3.05879e-06)
(-3.58485e-08 -8.84369e-08 -2.88386e-06)
(1.47223e-06 7.78082e-07 -4.02426e-06)
(-1.34579e-06 1.18214e-06 -4.15464e-06)
(-2.14717e-08 -1.35128e-08 -3.65845e-06)
(-1.10416e-08 -5.95597e-09 -2.03666e-06)
(1.60719e-09 4.39526e-09 -1.01929e-06)
(3.10612e-09 4.5715e-09 -4.55113e-07)
(1.87641e-09 2.64073e-09 -1.81613e-07)
(8.31588e-10 1.23345e-09 -6.5018e-08)
(3.0188e-10 5.0923e-10 -2.10416e-08)
(-1.46867e-10 -2.42719e-10 -8.0159e-09)
(8.83645e-11 9.26459e-11 -4.62921e-09)
(-1.05091e-09 6.94927e-10 -4.07684e-09)
(5.92439e-10 -2.3126e-10 -3.66347e-09)
(-1.78639e-10 -1.10609e-09 -4.94533e-09)
(-7.36014e-10 -5.84804e-11 -3.58579e-09)
(-1.81969e-12 -6.90389e-10 -5.13595e-09)
(7.19672e-10 -7.54487e-11 -3.57674e-09)
(-6.12226e-10 -2.09246e-10 -3.58577e-09)
(3.06445e-10 -7.34501e-10 -5.1091e-09)
(8.09257e-10 -1.57679e-10 -3.62443e-09)
(9.30669e-10 -9.79541e-10 -4.67207e-09)
(4.98613e-10 -3.25946e-10 -4.30082e-09)
(5.32009e-10 -3.12233e-10 -3.68041e-09)
(-1.30401e-09 7.14906e-10 -4.7197e-09)
(-1.73841e-10 -2.51724e-10 -3.60914e-09)
(-1.14833e-10 -1.24801e-10 -7.96705e-09)
(-1.25279e-10 1.24354e-10 -3.67449e-09)
(3.22967e-10 -6.9922e-10 -4.67456e-09)
(6.78017e-10 2.25862e-10 -4.25534e-09)
(2.44314e-10 -2.94854e-10 -3.53254e-09)
(5.15894e-10 1.91644e-14 -4.63848e-09)
(2.44239e-10 2.94916e-10 -3.53246e-09)
(6.77998e-10 -2.25973e-10 -4.25543e-09)
(3.23009e-10 6.99244e-10 -4.675e-09)
(5.32224e-10 3.12172e-10 -3.68078e-09)
(-1.30415e-09 -7.15177e-10 -4.71975e-09)
(9.30899e-10 9.79357e-10 -4.67209e-09)
(4.98846e-10 3.25793e-10 -4.30078e-09)
(8.09078e-10 1.57229e-10 -3.62367e-09)
(3.06116e-10 7.34476e-10 -5.10839e-09)
(-6.12339e-10 2.09191e-10 -3.58563e-09)
(7.1967e-10 7.53084e-11 -3.57648e-09)
(-1.35964e-09 -5.77752e-10 -4.28227e-09)
(1.3149e-09 -5.50354e-10 -4.29989e-09)
(-1.05115e-09 -6.95135e-10 -4.07674e-09)
(-1.788e-10 1.10626e-09 -4.94565e-09)
(-7.35917e-10 5.86896e-11 -3.58575e-09)
(5.92249e-10 2.31365e-10 -3.6636e-09)
(-3.29578e-10 7.34428e-10 -5.21266e-09)
(-8.22348e-10 1.39982e-10 -3.6744e-09)
(-4.93419e-10 3.37861e-10 -4.38947e-09)
(-4.53989e-10 3.69552e-10 -3.6689e-09)
(-3.40312e-10 6.77656e-10 -4.77074e-09)
(-1.13888e-11 -3.43327e-10 -3.84638e-09)
(-2.23455e-10 8.44987e-11 -3.88667e-09)
(-1.49235e-09 1.19535e-10 -5.46225e-09)
(8.39289e-10 -9.32125e-10 -4.34173e-09)
(8.38964e-10 9.32542e-10 -4.34187e-09)
(-2.23499e-10 -8.44031e-11 -3.88642e-09)
(-1.16713e-11 3.43429e-10 -3.84634e-09)
(2.41932e-10 -1.76868e-10 -3.94856e-09)
(-3.56684e-10 -1.77483e-10 -3.95609e-09)
(-4.01263e-10 -1.65637e-12 -4.906e-09)
(-3.5592e-10 1.77057e-10 -3.95439e-09)
(1.01805e-10 4.5049e-13 -4.92632e-09)
(7.1778e-11 6.03679e-13 -5.49579e-09)
(-7.46618e-10 -3.78427e-10 -3.44317e-09)
(-7.7574e-10 3.72751e-10 -3.45929e-09)
(-6.29493e-10 1.24873e-12 -3.10673e-09)
(-7.9623e-10 3.35469e-11 -4.66611e-09)
(-7.92708e-10 2.3271e-10 -5.27544e-09)
(-8.09059e-10 -2.72088e-10 -2.86306e-09)
(-7.44184e-10 1.00155e-09 -4.21375e-09)
(-1.22871e-09 2.13851e-10 -4.15259e-09)
(-1.04912e-09 9.58534e-10 -3.80928e-09)
(-4.69567e-10 1.15966e-09 -4.04413e-09)
(-5.87329e-10 1.25338e-09 -3.61945e-09)
(-4.51334e-10 9.41174e-10 -4.02332e-09)
(2.94719e-11 9.49745e-10 -4.12165e-09)
(-1.00011e-11 1.15809e-09 -3.64576e-09)
(-7.04462e-11 9.59455e-10 -4.1193e-09)
(3.81989e-10 9.35724e-10 -3.95904e-09)
(5.52578e-10 1.26269e-09 -3.52946e-09)
(4.31825e-10 1.16403e-09 -3.94321e-09)
(9.95606e-10 9.82946e-10 -3.68011e-09)
(1.39939e-09 3.02307e-10 -4.2552e-09)
(-3.07276e-10 1.25807e-10 -7.54758e-09)
(1.95362e-09 7.05734e-10 -9.0976e-09)
(-5.99779e-09 -3.88249e-09 -1.88937e-08)
(1.12285e-08 7.9491e-09 -3.57358e-08)
(-1.88344e-08 -1.31633e-08 -6.35464e-08)
(3.44911e-08 2.39405e-08 -1.09734e-07)
(-5.50574e-08 -3.99978e-08 -1.85317e-07)
(9.50762e-08 6.5248e-08 -3.02793e-07)
(-1.44729e-07 -1.07543e-07 -4.82896e-07)
(2.34689e-07 1.59567e-07 -7.46702e-07)
(-3.40108e-07 -2.56756e-07 -1.12305e-06)
(5.18707e-07 3.48136e-07 -1.64234e-06)
(-7.11964e-07 -5.46287e-07 -2.32617e-06)
(1.0298e-06 6.76187e-07 -3.20945e-06)
(-1.32654e-06 -1.04469e-06 -4.28763e-06)
(1.87639e-06 1.16321e-06 -5.44709e-06)
(-1.86055e-06 1.15355e-06 -5.25572e-06)
(1.97865e-06 9.71177e-07 -5.15187e-06)
(-2.04461e-06 9.24064e-07 -5.20726e-06)
(1.79777e-06 1.29025e-06 -5.24057e-06)
(-1.51188e-06 1.48913e-06 -5.15463e-06)
(6.06909e-09 3.90307e-09 -3.87525e-06)
(-1.27152e-06 -1.80734e-06 -5.2537e-06)
(3.46048e-07 1.33384e-06 -5.85492e-06)
(-3.60695e-06 1.03702e-06 -5.08673e-06)
(3.55251e-07 -3.57526e-07 -5.94187e-06)
(-1.06628e-06 3.60488e-06 -5.07678e-06)
(4.63504e-07 -4.68727e-07 -8.14979e-06)
(-2.14797e-08 1.34879e-08 -3.65843e-06)
(-1.10393e-08 5.93972e-09 -2.03665e-06)
(1.60148e-09 -4.3986e-09 -1.01928e-06)
(3.10309e-09 -4.57584e-09 -4.55107e-07)
(1.87779e-09 -2.64388e-09 -1.81609e-07)
(8.32393e-10 -1.23316e-09 -6.50159e-08)
(3.02044e-10 -5.09293e-10 -2.10409e-08)
(-1.46912e-10 2.42738e-10 -8.01588e-09)
(8.83045e-11 -9.26466e-11 -4.62928e-09)
(3.70029e-11 -2.71365e-11 -3.56084e-09)
(-4.01221e-10 -3.59964e-10 -4.02461e-09)
(-1.07748e-10 2.56061e-10 -8.02637e-09)
(4.585e-10 -4.37169e-10 -4.11702e-09)
(4.58503e-10 4.37124e-10 -4.11711e-09)
(-4.01276e-10 3.60121e-10 -4.02474e-09)
(3.7115e-11 2.6995e-11 -3.5609e-09)
(-1.07423e-10 -2.56259e-10 -8.02647e-09)
(8.33321e-11 -1.04168e-10 -3.69381e-09)
(1.3147e-09 5.50297e-10 -4.29986e-09)
(-1.35976e-09 5.77638e-10 -4.28236e-09)
(1.0563e-10 -1.11615e-09 -4.89967e-09)
(1.02035e-09 6.53298e-10 -4.04694e-09)
(-6.14047e-11 1.28428e-10 -4.57361e-09)
(-4.62146e-11 2.56927e-11 -3.53059e-09)
(-1.33559e-10 -1.151e-10 -3.69038e-09)
(-1.66015e-11 7.65492e-11 -4.75524e-09)
(-2.08732e-11 3.47863e-11 -8.23806e-09)
(1.13413e-10 9.4381e-11 -8.03283e-09)
(1.26467e-10 -3.33409e-15 -8.79922e-09)
(1.13412e-10 -9.45198e-11 -8.03257e-09)
(-6.16565e-11 -1.28773e-10 -4.57359e-09)
(-1.73699e-10 2.51649e-10 -3.60907e-09)
(-6.30981e-10 -5.65359e-10 -4.05637e-09)
(-1.14591e-10 1.25036e-10 -7.96698e-09)
(1.27458e-10 -5.8303e-10 -4.16623e-09)
(1.27591e-10 5.83435e-10 -4.16629e-09)
(-6.31091e-10 5.65571e-10 -4.0564e-09)
(-1.57021e-11 1.24704e-13 -4.99398e-09)
(3.91913e-10 -3.82628e-10 -4.00961e-09)
(-5.17762e-10 -4.46288e-10 -4.09534e-09)
(-5.1807e-10 4.46599e-10 -4.09539e-09)
(2.98551e-12 -2.50661e-10 -7.9493e-09)
(3.92205e-10 3.83001e-10 -4.00968e-09)
(-8.68461e-12 -6.80696e-11 -4.32711e-09)
(-6.32773e-11 8.55564e-14 -3.58344e-09)
(-8.43008e-11 -2.31713e-10 -3.52538e-09)
(-8.37858e-11 -1.10674e-10 -3.23716e-09)
(3.82109e-10 3.496e-10 -3.82881e-09)
(-7.91215e-11 -7.72957e-11 -3.50237e-09)
(-5.68137e-12 8.04343e-14 -3.68073e-09)
(-5.87749e-10 7.12706e-14 -6.1687e-09)
(-1.32454e-10 -2.41017e-14 -7.84266e-09)
(-3.4937e-10 -7.86598e-10 -5.55223e-09)
(7.02246e-10 5.05869e-10 -6.4396e-09)
(5.36515e-10 1.14919e-09 -3.96104e-09)
(1.07473e-09 -3.03186e-10 -3.19489e-09)
(7.6368e-10 8.84804e-10 -4.06597e-09)
(-2.70966e-09 -1.47303e-09 -5.7712e-09)
(2.8661e-09 3.03301e-09 -1.2664e-08)
(-6.97097e-09 -4.64308e-09 -2.09956e-08)
(-6.97063e-09 4.64272e-09 -2.09957e-08)
(-5.44938e-11 6.68812e-10 -1.79073e-08)
(-1.03279e-08 8.10517e-09 -3.7817e-08)
(2.89398e-10 2.59511e-10 -3.13019e-08)
(1.75375e-08 -1.54555e-08 -6.66012e-08)
(-3.07936e-08 2.54611e-08 -1.15583e-07)
(3.41501e-10 -2.17319e-10 -9.33984e-08)
(5.12104e-08 -4.4366e-08 -1.92812e-07)
(-8.47912e-08 7.15895e-08 -3.17021e-07)
(-1.02808e-10 -1.81877e-09 -2.50479e-07)
(1.33986e-07 -1.1494e-07 -5.01657e-07)
(-2.09676e-07 1.79316e-07 -7.78712e-07)
(-2.22479e-09 -6.75496e-09 -6.00716e-07)
(3.13595e-07 -2.66612e-07 -1.16687e-06)
(-4.60821e-07 3.99695e-07 -1.70623e-06)
(-8.90483e-09 -2.29552e-08 -1.2844e-06)
(6.58763e-07 -5.50538e-07 -2.41862e-06)
(-8.92661e-07 7.94087e-07 -3.32663e-06)
(-2.16167e-08 -7.67004e-08 -2.44089e-06)
(1.27404e-06 -1.00842e-06 -4.43256e-06)
(-1.48547e-06 1.40551e-06 -5.85383e-06)
(-8.72527e-08 -2.62506e-07 -4.29055e-06)
(2.59363e-06 -1.76373e-06 -6.96984e-06)
(4.3712e-07 -8.66537e-07 -5.00431e-06)
(3.24309e-06 -1.99035e-06 -6.62238e-06)
(3.24308e-06 1.99037e-06 -6.62234e-06)
(-2.98886e-07 -1.39723e-07 -7.29563e-06)
(7.99836e-07 -6.00725e-07 -7.52549e-06)
(-2.5874e-07 1.05814e-06 -6.50374e-06)
(1.08435e-06 9.4308e-07 -5.98974e-06)
(6.87405e-08 -2.34513e-11 -8.81563e-06)
(-6.5918e-07 -6.54288e-07 -5.68844e-06)
(-6.5917e-07 6.54272e-07 -5.68848e-06)
(7.44532e-07 6.93627e-07 -5.73844e-06)
(-2.93594e-08 -1.65647e-11 -8.8157e-06)
(-8.56886e-07 -8.29198e-07 -5.80866e-06)
(-8.56868e-07 8.29183e-07 -5.80868e-06)
(2.356e-07 3.44459e-07 -5.56381e-06)
(-2.91201e-07 -9.9495e-12 -8.7649e-06)
(-1.27467e-06 -2.2186e-06 -7.19058e-06)
(-1.27469e-06 2.21858e-06 -7.19056e-06)
(4.89574e-07 -1.45549e-06 -8.79702e-06)
(1.89159e-06 2.64175e-11 -1.26407e-05)
(4.89586e-07 1.45547e-06 -8.79705e-06)
(7.53521e-07 -1.13999e-06 -8.94775e-06)
(2.07344e-06 7.22512e-07 -1.25011e-05)
(8.98078e-07 1.66565e-06 -8.9391e-06)
(1.196e-06 1.18798e-06 -1.04101e-05)
(1.42046e-06 1.41283e-06 -8.60342e-06)
(-2.22092e-06 -2.20667e-06 -8.389e-06)
(-1.28617e-06 1.51179e-06 -6.87931e-06)
(1.16358e-06 1.88893e-07 -7.97115e-06)
(8.47004e-07 1.27485e-07 -9.80116e-06)
(-7.50461e-09 7.94936e-09 -8.91152e-06)
(2.35616e-07 -3.44486e-07 -5.56381e-06)
(-1.3743e-07 -1.25911e-07 -5.33976e-06)
(-3.80701e-07 -3.78587e-07 -8.70994e-06)
(1.51458e-06 -1.26305e-06 -6.91587e-06)
(-1.15167e-06 7.47593e-07 -8.95087e-06)
(7.22694e-07 2.04304e-06 -1.25017e-05)
(1.67205e-06 8.89511e-07 -8.94466e-06)
(9.578e-07 9.54251e-07 -9.88762e-06)
(-5.20096e-07 -5.14175e-07 -9.09782e-06)
(-6.91705e-07 1.14765e-11 -9.18859e-06)
(-5.20087e-07 5.14201e-07 -9.09774e-06)
(-3.80747e-07 3.78589e-07 -8.70992e-06)
(-1.28616e-06 -1.51181e-06 -6.8793e-06)
(-2.22094e-06 2.20665e-06 -8.38905e-06)
(8.98068e-07 -1.66579e-06 -8.93883e-06)
(2.07349e-06 -7.22594e-07 -1.25011e-05)
(7.53553e-07 1.13999e-06 -8.94766e-06)
(1.16357e-06 -1.88927e-07 -7.97126e-06)
(8.47004e-07 -1.27487e-07 -9.80116e-06)
(9.57882e-07 -9.54136e-07 -9.88755e-06)
(1.67187e-06 -8.89578e-07 -8.94502e-06)
(7.2254e-07 -2.04301e-06 -1.25016e-05)
(-1.15171e-06 -7.47619e-07 -8.95098e-06)
(1.51452e-06 1.26304e-06 -6.91584e-06)
(1.81832e-07 -1.16843e-06 -7.96447e-06)
(1.4415e-06 -5.26674e-07 -8.85377e-06)
(-3.13951e-08 -1.88646e-06 -1.265e-05)
(-1.49178e-06 -4.73776e-07 -8.80643e-06)
(2.21763e-06 1.18518e-06 -7.21869e-06)
(-2.79114e-08 2.89221e-07 -8.77641e-06)
(-3.8181e-07 -2.54201e-07 -5.55324e-06)
(-2.26679e-06 1.2843e-06 -7.19636e-06)
(-2.98862e-08 -2.78497e-07 -7.68693e-06)
(-2.6307e-07 -3.49189e-07 -7.81538e-06)
(2.04509e-08 -3.80015e-08 -3.85621e-06)
(1.45056e-08 -3.28343e-08 -2.15759e-06)
(5.94686e-09 -2.53754e-08 -1.08204e-06)
(2.34484e-09 -1.46078e-08 -4.8354e-07)
(8.58218e-10 -6.95609e-09 -1.92985e-07)
(2.65834e-10 -2.89774e-09 -6.90347e-08)
(6.06472e-11 -1.10244e-09 -2.22963e-08)
(-2.8874e-10 -8.86173e-10 -2.06111e-08)
(6.33755e-09 -3.53721e-09 -1.86811e-08)
(-6.97465e-09 -2.99728e-09 -1.86176e-08)
(6.83999e-09 -2.64794e-09 -1.86147e-08)
(-6.47095e-09 -4.31244e-09 -1.88312e-08)
(1.06043e-08 9.1542e-09 -3.41614e-08)
(-2.05037e-08 -1.48817e-08 -6.16115e-08)
(3.3454e-08 2.7705e-08 -1.04576e-07)
(-5.92219e-08 -4.5235e-08 -1.792e-07)
(9.34709e-08 7.55486e-08 -2.88674e-07)
(-1.53744e-07 -1.2205e-07 -4.66561e-07)
(2.32988e-07 1.84606e-07 -7.12303e-07)
(-3.57458e-07 -2.93345e-07 -1.08531e-06)
(5.18172e-07 4.02172e-07 -1.56725e-06)
(-7.40796e-07 -6.2798e-07 -2.25059e-06)
(1.02348e-06 7.78353e-07 -3.05889e-06)
(-1.34575e-06 -1.18216e-06 -4.15465e-06)
(-9.3024e-09 -1.00918e-08 -3.87217e-06)
(1.1391e-06 -1.1323e-06 -4.02252e-06)
(1.14653e-06 1.34104e-06 -4.14175e-06)
(8.16785e-07 -1.46734e-06 -4.04566e-06)
(-5.54963e-07 1.15975e-06 -3.05497e-06)
(4.7276e-08 -7.36566e-12 -2.20001e-06)
(-5.54858e-07 -1.15975e-06 -3.05501e-06)
(4.32994e-07 8.13329e-07 -2.20841e-06)
(6.04911e-07 -7.37521e-07 -2.24626e-06)
(6.02008e-07 5.97194e-07 -2.19343e-06)
(-4.06798e-07 -3.97872e-07 -1.54099e-06)
(-3.92178e-07 5.24266e-07 -1.57218e-06)
(3.01127e-08 9.20703e-09 -1.06939e-06)
(2.82497e-07 2.8003e-07 -1.06097e-06)
(7.8266e-09 3.32999e-08 -1.06718e-06)
(5.18235e-07 -4.02141e-07 -1.56731e-06)
(-1.6584e-08 -5.16223e-08 -1.52634e-06)
(-5.98934e-07 -2.68032e-07 -1.56397e-06)
(5.79181e-07 -3.05624e-07 -1.554e-06)
(-2.07177e-09 3.47262e-08 -1.08572e-06)
(-3.9635e-07 2.1717e-07 -1.07031e-06)
(3.6539e-07 2.3743e-07 -1.06862e-06)
(-5.45029e-07 -3.41709e-07 -1.56184e-06)
(7.75999e-10 -5.51237e-08 -1.52462e-06)
(-8.21123e-07 4.64575e-07 -2.21464e-06)
(-4.31013e-09 4.78545e-08 -2.19007e-06)
(1.14231e-06 -5.86737e-07 -3.03028e-06)
(-1.48274e-06 8.65508e-07 -4.06781e-06)
(-8.00664e-09 2.05834e-10 -3.90313e-06)
(-2.04462e-06 -9.24057e-07 -5.20726e-06)
(-8.23135e-08 -7.72303e-08 -4.96334e-06)
(9.99906e-07 -1.05417e-08 -5.5971e-06)
(-5.87622e-08 -9.7339e-07 -9.66186e-06)
(1.81877e-07 1.16841e-06 -7.96451e-06)
(-2.26681e-06 -1.28434e-06 -7.19631e-06)
(-3.81784e-07 2.54164e-07 -5.55321e-06)
(6.06414e-08 7.467e-08 -7.80547e-06)
(-4.02936e-08 -2.88999e-08 -5.23043e-06)
(-1.7332e-08 -9.97276e-12 -4.03076e-06)
(-1.49912e-08 -1.42611e-08 -3.80142e-06)
(-8.10314e-09 -1.79167e-08 -2.1346e-06)
(-3.66439e-09 -1.70377e-08 -1.07049e-06)
(-1.59145e-09 -1.0594e-08 -4.78258e-07)
(-6.79481e-10 -5.23403e-09 -1.9081e-07)
(-2.80376e-10 -2.22554e-09 -6.82682e-08)
(-1.09263e-10 -8.39382e-10 -2.21284e-08)
(-2.07821e-11 -3.48655e-11 -8.23801e-09)
(-1.62733e-11 -7.65843e-11 -4.75505e-09)
(-1.33167e-10 1.14907e-10 -3.69024e-09)
(3.05107e-12 2.50568e-10 -7.9491e-09)
(-4.62341e-11 -2.57403e-11 -3.53046e-09)
(1.0204e-09 -6.53545e-10 -4.04692e-09)
(1.0554e-10 1.11605e-09 -4.89955e-09)
(-3.22665e-11 -3.84046e-10 -8.49642e-09)
(-2.27688e-09 1.11706e-09 -9.07728e-09)
(2.1409e-09 7.78566e-10 -9.11784e-09)
(-2.27372e-09 7.21961e-10 -9.14214e-09)
(2.10558e-09 1.23793e-09 -9.15978e-09)
(-1.20042e-09 9.75095e-10 -8.15386e-09)
(2.70222e-09 -2.7163e-10 -4.86701e-09)
(-1.43579e-09 -2.45801e-09 -1.00835e-08)
(4.15415e-09 6.3661e-09 -1.92839e-08)
(7.4885e-10 -1.57181e-10 -2.09429e-08)
(-8.98633e-09 -1.10456e-08 -3.53088e-08)
(-8.95052e-09 8.78009e-09 -3.27448e-08)
(4.87695e-09 -4.53315e-09 -1.83124e-08)
(2.68969e-10 -9.2154e-10 -2.04438e-08)
(4.36456e-10 -1.64468e-09 -2.26936e-08)
(-1.44123e-10 3.78153e-10 -7.76983e-09)
(-1.8702e-11 3.76342e-10 -7.78319e-09)
(1.22714e-10 3.73399e-10 -7.65263e-09)
(3.46858e-10 2.5596e-10 -6.49931e-09)
(6.46994e-10 4.47751e-10 -8.17474e-09)
(-8.26088e-10 -4.59043e-10 -2.42015e-08)
(-6.83956e-10 -2.89193e-10 -2.18174e-08)
(6.47393e-10 6.25413e-10 -1.23651e-08)
(-4.72831e-10 -1.62495e-09 -2.25882e-08)
(-1.89033e-09 -6.27161e-09 -7.1491e-08)
(-2.88026e-09 -2.37529e-09 -7.02745e-08)
(-2.79296e-09 -1.94967e-09 -7.41416e-08)
(-7.70833e-09 -5.82113e-09 -2.0647e-07)
(-8.41854e-09 -7.80677e-09 -2.01332e-07)
(1.60435e-09 1.84772e-09 -1.24789e-07)
(8.27151e-10 9.91383e-10 -4.14297e-08)
(4.98625e-10 1.60539e-09 -3.96568e-08)
(-1.1296e-08 8.00907e-09 -3.3795e-08)
(1.20083e-08 7.03279e-09 -3.39745e-08)
(-2.23912e-08 -1.06246e-08 -6.07115e-08)
(2.20822e-08 -9.13924e-09 -6.05623e-08)
(-5.55769e-10 2.10742e-09 -3.6994e-08)
(-1.2539e-08 6.41154e-09 -3.40425e-08)
(-9.77269e-11 -1.00073e-09 -2.09298e-08)
(-4.33859e-11 -1.45097e-09 -2.26596e-08)
(-3.96194e-11 -6.05287e-09 -7.13677e-08)
(4.19832e-11 -1.79339e-08 -2.03988e-07)
(-5.07499e-09 -1.81201e-08 -2.03998e-07)
(-1.18933e-08 -4.50778e-08 -5.18178e-07)
(-2.12239e-08 -2.06102e-08 -5.13833e-07)
(-1.89091e-08 -1.47617e-08 -5.16334e-07)
(-4.08775e-08 -3.24303e-08 -1.155e-06)
(-4.79606e-08 -4.88072e-08 -1.16947e-06)
(3.21335e-09 3.29881e-09 -8.00382e-07)
(2.74948e-09 2.96257e-09 -3.34561e-07)
(3.05111e-09 7.08374e-09 -3.23531e-07)
(-9.91427e-08 6.39197e-08 -2.87045e-07)
(1.05001e-07 5.79453e-08 -2.86462e-07)
(-1.70042e-07 -8.99255e-08 -4.60459e-07)
(1.69165e-07 -7.72338e-08 -4.58275e-07)
(-3.47527e-09 1.30909e-08 -2.97457e-07)
(-1.0881e-07 5.07925e-08 -2.87515e-07)
(6.4624e-08 -2.82386e-08 -1.76096e-07)
(-1.45834e-09 5.55321e-09 -1.10756e-07)
(-3.91911e-08 1.89079e-08 -1.04096e-07)
(-2.29056e-10 -3.02539e-09 -6.59009e-08)
(3.76974e-08 2.13209e-08 -1.03788e-07)
(-6.51995e-08 -3.2977e-08 -1.76793e-07)
(1.81234e-10 5.88004e-09 -1.10705e-07)
(-3.56001e-08 2.36545e-08 -1.03804e-07)
(2.05811e-08 -1.21053e-08 -6.09676e-08)
(8.95469e-11 2.23701e-09 -3.6942e-08)
(-1.66462e-11 4.17434e-10 -4.28601e-08)
(-9.01331e-10 -9.39148e-10 -4.15562e-08)
(-1.03263e-08 -8.10387e-09 -3.78163e-08)
(3.77477e-10 1.82183e-10 -1.71793e-08)
(5.39098e-09 4.90374e-09 -2.12022e-08)
(2.2492e-10 -3.50832e-10 -9.76595e-09)
(-3.67547e-09 -2.39822e-09 -1.07929e-08)
(-1.11453e-09 -4.86529e-10 -4.62416e-09)
(1.207e-09 -2.94619e-10 -1.01455e-08)
(-3.36045e-10 -2.20519e-10 -1.26984e-08)
(-1.67264e-11 2.29607e-10 -1.30479e-08)
(-1.46931e-11 8.90576e-10 -1.15677e-08)
(1.7168e-10 9.00279e-10 -1.21369e-08)
(-3.19786e-10 8.58456e-10 -1.21677e-08)
(-2.10577e-11 -4.09551e-10 -8.52145e-09)
(-7.13917e-10 5.92332e-10 -1.27437e-08)
(-2.71441e-10 2.63288e-10 -6.62535e-09)
(1.31658e-10 1.34822e-10 -7.82627e-09)
(1.99027e-09 -4.61203e-10 -2.37565e-08)
(3.16716e-10 -4.33776e-10 -2.16588e-08)
(-1.05297e-09 9.28234e-10 -4.22523e-08)
(-8.69895e-10 1.48346e-09 -3.96845e-08)
(2.02715e-09 -6.33985e-09 -7.1583e-08)
(5.83145e-09 -1.83864e-08 -2.04241e-07)
(1.43707e-08 -4.6004e-08 -5.19539e-07)
(3.04791e-10 -4.53783e-08 -5.19421e-07)
(8.38865e-10 -1.03172e-07 -1.17829e-06)
(-2.51264e-08 -1.00474e-07 -1.1728e-06)
(-5.07717e-08 -2.08596e-07 -2.36769e-06)
(-1.02382e-07 -1.12537e-07 -2.37627e-06)
(-7.8521e-08 -6.35236e-08 -2.30562e-06)
(-1.6144e-07 -1.40947e-07 -4.08481e-06)
(-2.53456e-07 -2.90096e-07 -4.33814e-06)
(-2.87949e-08 -2.03324e-08 -3.25185e-06)
(-1.39634e-09 -9.2788e-10 -1.70917e-06)
(1.04916e-08 1.81264e-08 -1.67305e-06)
(-5.4501e-07 3.41704e-07 -1.56178e-06)
(5.79145e-07 3.05653e-07 -1.55395e-06)
(-8.21131e-07 -4.64548e-07 -2.21461e-06)
(8.18088e-07 -4.06472e-07 -2.19755e-06)
(-1.66073e-08 5.1623e-08 -1.52634e-06)
(-5.98888e-07 2.68037e-07 -1.56393e-06)
(3.95073e-07 -1.87707e-07 -1.0642e-06)
(-7.71255e-09 2.74682e-08 -7.13903e-07)
(-2.69945e-07 1.23143e-07 -7.09874e-07)
(-1.01244e-09 -1.79795e-08 -4.78382e-07)
(2.60986e-07 1.40978e-07 -7.06648e-07)
(-3.96347e-07 -2.17152e-07 -1.07029e-06)
(6.21318e-10 2.9263e-08 -7.13473e-07)
(-2.46144e-07 1.55968e-07 -7.08906e-07)
(1.56828e-07 -9.87007e-08 -4.60533e-07)
(3.59708e-10 1.38925e-08 -2.97373e-07)
(9.88753e-11 2.55883e-09 -3.36012e-07)
(-4.47775e-12 1.08496e-09 -1.26636e-07)
(-2.33908e-09 -2.58693e-09 -1.22256e-07)
(-3.07915e-08 -2.54573e-08 -1.15579e-07)
(2.86191e-10 3.62934e-10 -5.44594e-08)
(1.75373e-08 1.54548e-08 -6.6598e-08)
(2.89674e-10 -2.59496e-10 -3.13011e-08)
(1.50887e-09 -3.73509e-10 -3.21238e-08)
(-2.06072e-08 -1.51304e-08 -6.57606e-08)
(3.2743e-08 2.88675e-08 -1.13409e-07)
(-5.86652e-08 -4.44202e-08 -1.88707e-07)
(-5.86666e-08 4.44218e-08 -1.88705e-07)
(2.48739e-10 9.61289e-10 -1.54524e-07)
(9.09987e-08 -7.84239e-08 -3.08536e-07)
(3.06839e-09 2.1789e-09 -2.55019e-07)
(-1.52086e-07 1.1694e-07 -4.88407e-07)
(3.63891e-10 8.45031e-10 -3.90515e-07)
(2.25486e-07 -1.91451e-07 -7.54991e-07)
(3.18045e-09 4.70743e-09 -6.10159e-07)
(-3.51772e-07 2.74469e-07 -1.13136e-06)
(7.86085e-10 -2.47727e-09 -8.82253e-07)
(4.98904e-07 -4.16252e-07 -1.64935e-06)
(-4.2088e-09 7.67844e-09 -1.30037e-06)
(-7.13307e-07 5.72464e-07 -2.33589e-06)
(5.94615e-09 -2.27767e-08 -1.775e-06)
(9.90462e-07 -7.99304e-07 -3.19799e-06)
(-5.19318e-08 3.60922e-09 -2.45949e-06)
(-1.23287e-06 1.05887e-06 -4.29785e-06)
(4.34725e-08 -1.27125e-07 -3.16991e-06)
(1.81355e-06 -1.31512e-06 -5.39478e-06)
(-3.04049e-07 -1.13935e-07 -4.16063e-06)
(-1.61236e-06 1.65009e-06 -7.14246e-06)
(-2.20875e-07 -2.97101e-11 -6.02195e-06)
(-1.61232e-06 -1.65009e-06 -7.14244e-06)
(4.37115e-07 8.66384e-07 -5.0043e-06)
(2.59365e-06 1.7638e-06 -6.96968e-06)
(-8.72258e-08 2.62381e-07 -4.29049e-06)
(-1.48537e-06 -1.40545e-06 -5.8538e-06)
(-5.45678e-08 -1.48979e-08 -3.18778e-06)
(1.27397e-06 1.00838e-06 -4.43246e-06)
(-2.16074e-08 7.6643e-08 -2.44085e-06)
(-8.92649e-07 -7.94045e-07 -3.32658e-06)
(-2.37209e-08 -1.53568e-09 -1.79138e-06)
(6.58786e-07 5.506e-07 -2.41858e-06)
(-8.8877e-09 2.29151e-08 -1.2844e-06)
(-4.60744e-07 -3.99648e-07 -1.70623e-06)
(-8.47296e-09 2.33616e-10 -8.89213e-07)
(3.13609e-07 2.66642e-07 -1.16686e-06)
(-2.21441e-09 6.72458e-09 -6.00699e-07)
(-2.09664e-07 -1.79307e-07 -7.78709e-07)
(-2.52574e-09 6.41276e-10 -3.92614e-07)
(1.33983e-07 1.14944e-07 -5.01636e-07)
(-9.67015e-11 1.81058e-09 -2.50471e-07)
(-8.47858e-08 -7.15832e-08 -3.17018e-07)
(-3.58877e-10 5.67998e-10 -1.54629e-07)
(5.12096e-08 4.43675e-08 -1.92803e-07)
(3.44244e-10 2.18257e-10 -9.3395e-08)
(2.1583e-09 -8.8928e-10 -9.53536e-08)
(-3.97696e-09 -4.29203e-09 -1.30023e-07)
(-1.66724e-09 -1.50744e-09 -4.55927e-08)
(-6.44398e-10 -3.71526e-10 -1.53332e-08)
(6.11527e-10 3.22159e-10 -6.37469e-09)
(-2.17047e-11 -2.73488e-13 -5.33189e-09)
(-1.07334e-09 -3.53656e-14 -9.4798e-09)
(-3.28754e-09 -2.02745e-12 -2.62418e-08)
(-8.51781e-09 1.71417e-13 -7.57728e-08)
(-2.0578e-08 3.4507e-12 -2.06101e-07)
(-4.49886e-08 1.27041e-11 -5.10116e-07)
(-8.35812e-08 3.7665e-11 -1.13224e-06)
(-1.161e-07 1.91187e-10 -2.23655e-06)
(-7.74725e-08 4.82698e-11 -3.90094e-06)
(4.99338e-08 -2.66953e-11 -5.78488e-06)
(-1.78338e-07 -1.06129e-10 -7.28322e-06)
(-1.25486e-06 5.86666e-07 -7.01117e-06)
(-1.25486e-06 -5.86748e-07 -7.01115e-06)
(-1.28399e-06 -8.10808e-07 -6.2692e-06)
(-1.07414e-06 -8.1811e-07 -7.60852e-06)
(-3.2752e-07 -1.84455e-07 -5.45574e-06)
(-1.41985e-07 -4.40922e-07 -4.28406e-06)
(-5.91567e-07 -1.38559e-06 -7.2368e-06)
(8.74092e-07 3.67865e-06 -5.17439e-06)
(1.281e-06 -2.25062e-07 -5.71706e-06)
(3.54579e-08 8.70987e-08 -4.95802e-06)
(1.77881e-08 1.36753e-09 -5.0615e-06)
(6.34195e-08 -4.30189e-08 -4.93578e-06)
(-3.03998e-07 1.13934e-07 -4.1606e-06)
(1.81344e-06 1.31519e-06 -5.3947e-06)
(4.35136e-08 1.27045e-07 -3.16985e-06)
(-1.23286e-06 -1.05883e-06 -4.29784e-06)
(-1.32021e-07 -1.15562e-11 -3.70816e-06)
(-8.14149e-08 -1.15519e-11 -3.8582e-06)
(-6.18836e-08 -1.20035e-11 -2.16347e-06)
(5.99527e-09 2.27634e-08 -1.77495e-06)
(-7.13291e-07 -5.72456e-07 -2.3359e-06)
(9.90418e-07 7.99304e-07 -3.1979e-06)
(-5.1936e-08 -3.61488e-09 -2.45952e-06)
(-1.24344e-08 -3.20565e-08 -3.04037e-06)
(-1.63693e-08 -2.22595e-08 -1.61757e-06)
(-4.22245e-09 -7.69301e-09 -1.30036e-06)
(4.98831e-07 4.16258e-07 -1.6493e-06)
(8.0428e-10 2.46524e-09 -8.8224e-07)
(-3.51743e-07 -2.74473e-07 -1.13138e-06)
(-1.76403e-08 4.15098e-12 -1.03026e-06)
(-3.79667e-08 4.04132e-13 -1.0859e-06)
(-1.97327e-08 -1.69185e-12 -4.86057e-07)
(-8.75457e-09 -1.60022e-12 -1.94566e-07)
(2.52879e-10 -9.67222e-10 -1.54521e-07)
(9.09948e-08 7.84241e-08 -3.08522e-07)
(-1.52083e-07 -1.16937e-07 -4.88415e-07)
(2.25475e-07 1.91461e-07 -7.54967e-07)
(3.18288e-09 -4.70248e-09 -6.10139e-07)
(-1.06535e-08 -1.27876e-08 -7.65737e-07)
(-5.41075e-09 -6.19756e-09 -3.23372e-07)
(5.14396e-10 -1.35729e-12 -2.02424e-07)
(1.75518e-10 -4.94508e-13 -7.24651e-08)
(6.19649e-11 -1.37043e-14 -2.36593e-08)
(-1.04572e-09 -1.09049e-13 -2.30115e-08)
(-5.41502e-11 -6.69306e-10 -1.79074e-08)
(1.04798e-08 9.69689e-09 -3.81688e-08)
(4.37224e-10 -1.50951e-13 -2.15744e-08)
(1.04806e-08 -9.69738e-09 -3.81691e-08)
(1.50761e-09 3.7352e-10 -3.21241e-08)
(-2.06068e-08 1.5131e-08 -6.57612e-08)
(9.13924e-11 7.57284e-10 -5.50281e-08)
(3.27474e-08 -2.88693e-08 -1.13415e-07)
(2.1596e-09 8.88451e-10 -9.53556e-08)
(-2.33895e-09 2.58565e-09 -1.22257e-07)
(-3.3096e-09 1.40726e-13 -7.00388e-08)
(9.19314e-11 -7.59564e-10 -5.50255e-08)
(-1.28825e-10 8.06006e-14 -6.49124e-08)
(-9.01145e-10 9.38791e-10 -4.15563e-08)
(-3.3593e-10 2.20422e-10 -1.26987e-08)
(-3.67574e-09 2.3984e-09 -1.07932e-08)
(2.25021e-10 3.50532e-10 -9.7664e-09)
(5.39081e-09 -4.90383e-09 -2.12031e-08)
(1.20678e-09 2.94532e-10 -1.0146e-08)
(2.86603e-09 -3.03303e-09 -1.26641e-08)
(-3.49337e-10 7.86767e-10 -5.55217e-09)
(-2.70969e-09 1.47304e-09 -5.77126e-09)
(4.07473e-10 7.85754e-14 -7.49717e-09)
(7.63781e-10 -8.84738e-10 -4.06612e-09)
(1.0749e-09 3.03467e-10 -3.19489e-09)
(5.36239e-10 -1.14905e-09 -3.96081e-09)
(1.39926e-09 -3.02425e-10 -4.25512e-09)
(7.02544e-10 -5.05925e-10 -6.44014e-09)
(3.01365e-10 -3.05902e-11 -4.34769e-09)
(-3.41951e-10 -2.08219e-10 -3.66064e-09)
(2.38289e-10 -1.3852e-10 -4.26495e-09)
(-7.90607e-11 7.7241e-11 -3.50209e-09)
(-8.42327e-11 2.31647e-10 -3.52498e-09)
(3.82114e-10 -3.49799e-10 -3.82895e-09)
(-8.37915e-11 1.1066e-10 -3.23687e-09)
(5.60862e-11 -3.63436e-10 -4.01592e-09)
(-6.33136e-12 2.33345e-10 -3.58658e-09)
(-7.70683e-12 6.91452e-14 -3.66578e-09)
(-6.29171e-12 -2.33427e-10 -3.58671e-09)
(-6.65087e-12 -1.2231e-10 -3.25933e-09)
(-1.8493e-12 6.90335e-10 -5.13596e-09)
(5.6119e-11 3.63374e-10 -4.016e-09)
(-8.62584e-12 6.81523e-11 -4.3273e-09)
(2.38328e-10 1.38638e-10 -4.26513e-09)
(-1.25495e-10 -1.24434e-10 -3.67441e-09)
(-3.42132e-10 2.08485e-10 -3.66081e-09)
(3.01209e-10 3.05849e-11 -4.34751e-09)
(-1.85277e-11 6.92729e-11 -4.37053e-09)
(9.65488e-11 -2.22521e-10 -3.57267e-09)
(8.42215e-11 -1.05931e-10 -3.30499e-09)
(-7.53795e-11 3.6547e-10 -4.06638e-09)
(-3.98438e-10 3.48002e-10 -3.93651e-09)
(9.21925e-11 -5.84266e-11 -3.61506e-09)
(-2.50381e-10 1.06243e-10 -4.20371e-09)
(4.14688e-10 6.30635e-10 -3.71152e-09)
(1.30121e-09 -7.04053e-10 -4.74145e-09)
(-1.00386e-09 9.71329e-10 -4.87562e-09)
(1.73722e-10 7.31377e-11 -7.85525e-09)
(8.78463e-11 4.56796e-14 -3.62197e-09)
(4.70241e-11 1.68844e-13 -5.03821e-09)
(9.72914e-11 4.88865e-14 -8.73459e-09)
(-4.48459e-11 -2.17467e-14 -8.89025e-09)
(-2.60079e-11 1.19987e-13 -5.11515e-09)
(-1.29004e-10 -1.20511e-13 -2.37657e-08)
(-3.29857e-10 7.13194e-15 -7.26256e-08)
(-7.8352e-10 3.76963e-14 -2.02728e-07)
(-1.78961e-09 -1.2843e-12 -5.07873e-07)
(1.39772e-09 -6.17256e-13 -5.07445e-07)
(3.6971e-09 4.4749e-12 -1.13631e-06)
(1.00285e-08 5.33107e-12 -2.26649e-06)
(2.47007e-08 -8.98773e-12 -4.03722e-06)
(-1.17501e-07 -1.58629e-11 -7.37761e-06)
(-4.25562e-07 5.08731e-13 -6.87174e-06)
(1.54346e-06 -5.60148e-11 -1.11779e-05)
(-2.58747e-07 -1.05821e-06 -6.50371e-06)