/*--------------------------------*- C++ -*----------------------------------*\
| =========                 |                                                 |
| \\      /  F ield         | OpenFOAM: The Open Source CFD Toolbox           |
|  \\    /   O peration     | Version:  2306                                  |
|   \\  /    A nd           | Website:  www.openfoam.com                      |
|    \\/     M anipulation  |                                                 |
\*---------------------------------------------------------------------------*/
FoamFile
{
    version     2.0;
    format      ascii;
    arch        "LSB;label=32;scalar=64";
    class       volScalarField;
    location    "0.7";
    object      gradTx;
}
// * * * * * * * * * * * * * * * * * * * * * * * * * * * * * * * * * * * * * //

dimensions      [0 -1 0 1 0 0 0];

internalField   nonuniform List<scalar> 
2658
(
0.00822178
0.0122047
0.00389837
5.19591e-05
-0.0129214
-0.0108684
0.00980069
0.00973589
-7.96408e-05
0.0153661
-0.0114433
-0.00911322
0.00677748
0.00769681
0.00577973
-0.000263009
-0.000238014
-0.000258117
-0.00627271
-0.0083357
-0.00825429
-0.019143
-0.0222848
0.0161715
-0.0065797
-0.00907373
-0.0194696
-0.00255513
-0.0142424
-0.0157027
-0.0142422
-0.01947
-0.0090741
-0.0222858
-0.00657919
0.0161713
-0.00717954
0.00395992
-0.0191402
-0.00825662
-0.00833565
-0.00627242
-0.000259462
0.000616448
-0.00913827
0.00854613
-0.0114431
-0.000502251
-0.000264931
0.00577973
0.00769694
0.00677701
0.0181845
-0.00366893
0.0200832
0.0166923
-0.00842838
6.38755e-05
-0.0287265
0.0167722
-0.00842781
0.0166926
0.0200831
-0.00366816
0.00303645
-0.030829
0.0029584
-0.000771325
-0.00817601
-0.00817693
-2.07331e-06
0.00697978
-0.000837003
-0.00650245
0.000374096
-0.00690069
0.00874822
2.50581e-05
-0.0063321
0.00699213
-0.0101091
-0.000306398
0.0125831
-0.0115025
-0.000183518
-9.43729e-05
1.37367e-05
2.6548e-05
1.60377e-05
7.10759e-06
2.58017e-06
-1.25527e-06
7.55252e-07
-8.98211e-06
5.06358e-06
-1.52683e-06
-6.29072e-06
-1.55529e-08
6.15105e-06
-5.2327e-06
2.61919e-06
6.91672e-06
7.95444e-06
4.26165e-06
4.54708e-06
-1.11454e-05
-1.48582e-06
-9.81479e-07
-1.07076e-06
2.7604e-06
5.79502e-06
2.08816e-06
4.40935e-06
2.08751e-06
5.79486e-06
2.76076e-06
4.54892e-06
-1.11466e-05
7.95641e-06
4.26364e-06
6.9152e-06
2.61638e-06
-5.23367e-06
6.15103e-06
-1.16209e-05
1.12384e-05
-8.98417e-06
-1.52821e-06
-6.28989e-06
5.06196e-06
-2.81691e-06
-7.02861e-06
-4.21726e-06
-3.88025e-06
-2.90865e-06
-9.73399e-08
-1.90988e-06
-1.27552e-05
7.17341e-06
7.17064e-06
-1.91025e-06
-9.97551e-08
2.0678e-06
-3.04858e-06
-3.4296e-06
-3.04205e-06
8.70124e-07
6.13487e-07
-6.38135e-06
-6.63026e-06
-5.38029e-06
-6.80539e-06
-6.77528e-06
-6.91503e-06
-6.36055e-06
-1.05018e-05
-8.96681e-06
-4.0134e-06
-5.01991e-06
-3.85755e-06
2.51897e-07
-8.54796e-08
-6.02104e-07
3.26486e-06
4.72289e-06
3.69081e-06
8.50945e-06
1.19606e-05
-2.62629e-06
1.66976e-05
-5.12631e-05
9.59702e-05
-0.000160978
0.000294796
-0.000470576
0.000812617
-0.001237
0.00200589
-0.00290691
0.00443339
-0.00608516
0.00880172
-0.0113379
0.0160375
-0.0159022
0.0169116
-0.0174753
0.0153656
-0.012922
5.18726e-05
-0.0108677
0.00295767
-0.0308286
0.00303633
-0.00911353
0.00396157
-0.000183587
-9.43534e-05
1.36879e-05
2.65221e-05
1.60495e-05
7.11447e-06
2.58158e-06
-1.25566e-06
7.54739e-07
3.16264e-07
-3.42924e-06
-9.20922e-07
3.91881e-06
3.91883e-06
-3.42971e-06
3.17222e-07
-9.18146e-07
7.1224e-07
1.12368e-05
-1.16219e-05
9.02818e-07
8.72097e-06
-5.24827e-07
-3.94997e-07
-1.14153e-06
-1.41893e-07
-1.78404e-07
9.69338e-07
1.08092e-06
9.69332e-07
-5.26979e-07
-1.48461e-06
-5.393e-06
-9.79413e-07
1.08938e-06
1.09052e-06
-5.39394e-06
-1.34206e-07
3.34968e-06
-4.42532e-06
-4.42795e-06
2.55172e-08
3.35218e-06
-7.42275e-08
-5.40832e-07
-7.2052e-07
-7.16118e-07
3.26589e-06
-6.76252e-07
-4.85587e-08
-5.0235e-06
-1.13209e-06
-2.98607e-06
6.0021e-06
4.5856e-06
9.1857e-06
6.52718e-06
-2.31595e-05
2.44966e-05
-5.9581e-05
-5.9578e-05
-4.65759e-07
-8.82729e-05
2.47349e-06
0.000149893
-0.000263193
2.91881e-06
0.000437696
-0.000724711
-8.78698e-07
0.00114518
-0.0017921
-1.90153e-05
0.0026803
-0.00393864
-7.61097e-05
0.00563046
-0.00762958
-0.000184758
0.0108892
-0.0126963
-0.00074575
0.0221678
0.00373607
0.0277188
0.0277186
-0.00255458
0.00683621
-0.00221145
0.00926792
0.000587526
-0.00563402
-0.00563393
0.00636352
-0.000250935
-0.00732381
-0.00732366
0.00201368
-0.0024889
-0.0108946
-0.0108948
0.0041844
0.0161675
0.00418449
0.00644035
0.0177217
0.00767588
0.0102222
0.0121407
-0.0189823
-0.0109929
0.0099451
0.00723935
-6.41419e-05
0.00201381
-0.00117461
-0.00325386
0.0129451
-0.00984333
0.00617687
0.014291
0.00818633
-0.00444526
-0.005912
-0.00444519
-0.00325424
-0.0109928
-0.0189824
0.00767579
0.0177222
0.00644062
0.00994506
0.00723935
0.00818703
0.0142895
0.00617556
-0.00984371
0.0129446
0.00155412
0.0123205
-0.000268334
-0.0127502
0.0189541
-0.000238559
-0.00326333
-0.0193743
-0.000255437
-0.00224846
0.000174794
0.00012398
5.08279e-05
2.00414e-05
7.3352e-06
2.27209e-06
5.18352e-07
-2.46786e-06
5.41671e-05
-5.96124e-05
5.84614e-05
-5.53073e-05
9.06349e-05
-0.000175245
0.000285932
-0.00050617
0.000798896
-0.00131405
0.00199135
-0.00305519
0.00442882
-0.00633159
0.0087477
-0.0115021
-7.95077e-05
0.00973592
0.00979938
0.00698107
-0.00474327
0.000404069
-0.00474237
0.0037008
0.00517018
0.00514537
-0.0034769
-0.00335195
0.000257374
0.0024145
6.6894e-05
0.00442936
-0.000141743
-0.00511909
0.00495027
-1.77075e-05
-0.00338761
0.00312299
-0.00465836
6.63247e-06
-0.00701814
-3.68387e-05
0.00976337
-0.012673
-6.84328e-05
-0.0174754
-0.000703534
0.00854621
-0.000502241
0.00155451
-0.0193745
-0.00326311
0.000518302
-0.00034439
-0.000148137
-0.00012813
-6.92576e-05
-3.13196e-05
-1.36021e-05
-5.80753e-06
-2.39638e-06
-9.33875e-07
-1.77625e-07
-1.39088e-07
-1.13818e-06
2.60775e-08
-3.95163e-07
8.7214e-06
9.02049e-07
-2.75782e-07
-1.94605e-05
1.82983e-05
-1.94335e-05
1.79964e-05
-1.026e-05
2.30959e-05
-1.22717e-05
3.55056e-05
6.40043e-06
-7.68062e-05
-7.65001e-05
4.16833e-05
2.29888e-06
3.73039e-06
-1.23182e-06
-1.59846e-07
1.04884e-06
2.9646e-06
5.52986e-06
-7.06058e-06
-5.84577e-06
5.53327e-06
-4.04129e-06
-1.61567e-05
-2.46176e-05
-2.38714e-05
-6.58832e-05
-7.19533e-05
1.37124e-05
7.06966e-06
4.26175e-06
-9.65473e-05
0.000102635
-0.000191377
0.000188737
-4.75016e-06
-0.000107171
-8.35273e-07
-3.7082e-07
-3.38627e-07
3.58831e-07
-4.33759e-05
-0.000101652
-0.000181401
-0.000161616
-0.00034938
-0.00040992
2.74645e-05
2.34998e-05
2.60779e-05
-0.000847373
0.000897442
-0.00145335
0.00144585
-2.97031e-05
-0.000929999
0.000552342
-1.24644e-05
-0.000334966
-1.95775e-06
0.0003222
-0.000557261
1.54901e-06
-0.000304274
0.000175906
7.65358e-07
-1.42275e-07
-7.70369e-06
-8.82589e-05
3.2263e-06
4.60768e-05
1.92239e-06
-3.14143e-05
-9.52592e-06
1.03163e-05
-2.87218e-06
-1.42961e-07
-1.25582e-07
1.46735e-06
-2.73321e-06
-1.7998e-07
-6.10185e-06
-2.32001e-06
1.12529e-06
1.70109e-05
2.70698e-06
-8.99971e-06
-7.435e-06
1.73261e-05
4.98415e-05
0.000122826
2.60505e-06
7.16979e-06
-0.000214756
-0.000433946
-0.000875056
-0.00067112
-0.00137983
-0.00216629
-0.00024611
-1.19345e-05
8.96719e-05
-0.00465821
0.00494996
-0.00701821
0.00699221
-0.000141943
-0.0051187
0.0033767
-6.59193e-05
-0.00230722
-8.65331e-06
0.00223065
-0.00338758
5.31041e-06
-0.00210379
0.00134041
3.07443e-06
8.45088e-07
-3.82713e-08
-1.99921e-05
-0.000263176
2.44607e-06
0.000149892
2.47584e-06
1.28963e-05
-0.00017613
0.000279854
-0.000501412
-0.000501424
2.12598e-06
0.000777767
2.62256e-05
-0.00129988
3.11018e-06
0.00192723
2.71834e-05
-0.0030066
6.71868e-06
0.00426414
-3.59726e-05
-0.00609664
5.08218e-05
0.00846549
-0.000443861
-0.0105374
0.00037156
0.0155004
-0.00259871
-0.0137809
-0.00188782
-0.0137805
0.00373602
0.0221679
-0.000745519
-0.0126955
-0.000466392
0.0108886
-0.000184679
-0.00762948
-0.000202742
0.00563065
-7.59632e-05
-0.00393799
-7.24184e-05
0.00268042
-1.89266e-05
-0.001792
-2.15875e-05
0.00114515
-8.26508e-07
-0.000724665
-3.06733e-06
0.000437689
2.94225e-06
1.8447e-05
-3.39911e-05
-1.42499e-05
-5.50767e-06
5.22672e-06
-1.8551e-07
-9.17386e-06
-2.80986e-05
-7.28018e-05
-0.000175881
-0.000384518
-0.000714369
-0.000992308
-0.000662158
0.000426785
-0.00152426
-0.0107253
-0.0107253
-0.0109743
-0.00918067
-0.00279932
-0.00121355
-0.00505613
0.00747087
0.0109488
0.000303059
0.000152035
0.000542047
-0.00259828
0.0154995
0.000371911
-0.0105373
-0.00112838
-0.000695854
-0.00052892
5.12416e-05
-0.00609651
0.00846511
-0.000443897
-0.000106277
-0.000139908
-3.60893e-05
0.00426351
6.87418e-06
-0.00300635
-0.000150772
-0.000324502
-0.000168655
-7.48254e-05
2.16136e-06
0.000777733
-0.00129986
0.00192714
2.72041e-05
-9.10559e-05
-4.62457e-05
4.39655e-06
1.50015e-06
5.29615e-07
-8.93781e-06
-4.62822e-07
8.95712e-05
3.73696e-06
8.95775e-05
1.28855e-05
-0.000176126
7.81131e-07
0.000279893
1.84581e-05
-1.9991e-05
-2.82871e-05
7.85739e-07
-1.10107e-06
-7.7021e-06
-2.8712e-06
-3.14166e-05
1.92325e-06
4.60753e-05
1.03144e-05
2.4496e-05
-2.98578e-06
-2.31598e-05
3.48268e-06
6.52804e-06
9.18714e-06
4.58324e-06
1.19595e-05
6.00465e-06
2.57577e-06
-2.92266e-06
2.03666e-06
-6.75733e-07
-7.19938e-07
3.26593e-06
-7.16166e-07
4.79369e-07
-5.41142e-08
-6.58704e-08
-5.37753e-08
-5.6845e-08
-1.58059e-08
4.79649e-07
-7.37251e-08
2.037e-06
-1.07261e-06
-2.92421e-06
2.57444e-06
-1.58356e-07
8.25204e-07
7.19842e-07
-6.44269e-07
-3.40545e-06
7.8797e-07
-2.14e-06
3.54434e-06
1.11214e-05
-8.58004e-06
1.4848e-06
7.50823e-07
4.01915e-07
8.3155e-07
-3.83298e-07
-2.2229e-07
-1.1026e-06
-2.81929e-06
-6.69675e-06
-1.52958e-05
1.19463e-05
3.15991e-05
8.57139e-05
0.000211117
-0.00100428
-0.00363728
0.013192
-0.00221151
0.00683622
-0.0148979
-0.00708912
-0.00708847
-0.0148987
-0.00758363
-7.98161e-05
-0.01325
0.0214548
0.00160319
-0.000779326
-0.0150232
-0.00127863
0.00937776
-0.00699096
-0.0152268
-0.0127696
-0.0122387
-0.00882054
0.0010554
0.00208689
0.00104409
0.000428525
-0.0127305
0.00104439
-0.007583
-0.0132505
-7.92707e-05
0.00421048
0.0016037
-0.0150234
-0.000779043
0.00197233
-0.000238423
0.0189545
-0.0127507
-0.000267821
0.0123214
0.000972967
-0.000480126
0.00208753
0.00167677
-0.00382533
0.00421081
0.00293778
0.00030871
-0.00134164
-0.000479601
-0.000113949
0.000972326
-0.00192389
-6.42474e-05
-0.00117452
0.000518339
-0.00034446
-0.00070376
-0.000402784
-2.40402e-05
7.97709e-06
0.000129492
-0.00915318
0.00976324
-0.0126734
0.0125835
-0.000306911
-0.0101087
-3.67296e-05
-0.000306869
0.000568002
0.000272792
-0.000170539
-9.00745e-05
-4.32037e-05
-1.88137e-05
1.1135e-05
0.000513563
-1.78711e-05
-1.65873e-05
-0.000233931
1.93022e-05
-0.000232369
0.000371834
5.30438e-05
-0.000631332
-0.000642022
0.000378822
2.13936e-05
0.00101094
0.000127673
-0.00153925
-0.00157873
4.41818e-05
0.00241468
0.000257018
-0.00335146
-0.00347711
6.70046e-05
0.00514552
0.000373935
-0.00650192
-0.00690158
2.54844e-05
0.000428642
0.00137814
0.0045654
-0.000181137
-0.000230761
7.25287e-05
-0.000359457
0.0023498
0.0026474
0.00389762
0.00185079
0.000879192
0.000391011
0.000158316
5.67526e-05
1.77965e-05
-2.75741e-05
-5.22578e-05
-0.000168765
2.31074e-05
-0.000168703
0.000263575
6.28346e-05
-0.000460875
-0.000461006
0.000263674
3.51774e-05
1.38615e-05
4.42383e-06
-2.51303e-06
-1.33887e-06
-8.55828e-06
-6.32165e-06
2.41285e-05
-6.30876e-06
2.76048e-05
7.6608e-06
-5.46177e-05
-5.46606e-05
2.76396e-05
-5.84599e-06
5.44303e-06
-1.26253e-06
-1.27198e-06
7.20497e-06
-1.13417e-06
5.45002e-06
-1.22855e-05
2.31041e-05
-1.02539e-05
4.16826e-05
6.4009e-06
-7.64857e-05
-7.68496e-05
3.555e-05
-8.55644e-06
-2.51287e-06
-1.4342e-07
5.1813e-07
3.22537e-06
-5.12641e-05
-2.46417e-06
-9.65541e-05
7.67597e-07
-0.000191396
-1.95607e-06
-0.000334972
-1.24617e-05
0.00055239
-0.000506243
2.13857e-05
-0.000641993
-0.000631494
5.29935e-05
0.000378835
-0.000233909
-0.000232432
1.92801e-05
0.000127904
8.67663e-06
0.000285985
-0.000175284
0.000188753
-0.000107173
-4.74989e-06
9.06593e-05
2.2963e-06
-5.53228e-05
5.84664e-05
-8.38657e-07
0.00010264
-5.96159e-05
5.41681e-05
-1.94623e-05
-1.24329e-07
1.82996e-05
-1.71794e-08
-1.94346e-05
-1.33764e-06
1.80047e-05
8.02536e-06
-3.85569e-06
2.52813e-07
-1.79539e-07
-2.73062e-06
1.46725e-06
5.53251e-06
5.53051e-06
5.22958e-06
-5.50994e-06
-1.42617e-05
-7.06045e-06
-2.3875e-05
-3.40611e-05
-8.0602e-05
-6.59088e-05
-0.000161558
-0.000172123
-0.000171639
-8.04514e-05
2.61849e-05
-0.000285276
-0.000286779
-0.000349136
-0.000671516
-0.000262333
-0.000259844
-5.00732e-05
-5.03913e-05
-0.00138109
-0.010975
-0.00918839
-0.0028024
0.0160375
8.83898e-06
-0.0159019
0.000303141
-0.00913803
-0.000359353
-0.000255361
-0.00224845
0.000174865
0.000123965
5.08792e-05
2.00236e-05
7.33815e-06
2.27505e-06
2.44775e-06
-0.000160981
-7.76974e-06
-0.000304281
1.53778e-06
-0.000557306
-4.17957e-06
-0.000930076
-2.96879e-05
0.00144593
-0.0013142
4.41235e-05
-0.00157868
-0.0015396
0.000127662
0.00101089
0.00100075
-0.000122454
0.000711877
0.000148191
-0.00112354
-0.00112378
0.000712075
-0.000122427
0.00100054
-5.71553e-05
0.000159817
5.69407e-05
1.72398e-05
7.35887e-06
-5.84424e-06
1.12492e-06
-6.35627e-06
-6.9542e-06
-4.97349e-06
-2.90939e-06
-3.88162e-06
-4.21937e-06
-8.57702e-06
-7.0278e-06
-2.81518e-06
-5.01592e-06
-4.01304e-06
1.4881e-06
-8.96904e-06
-1.05065e-05
-2.31949e-06
-1.23303e-06
-1.59861e-07
1.04722e-06
4.72467e-06
3.2652e-06
-2.7713e-07
-6.01024e-07
-8.59842e-08
-6.93255e-06
1.66983e-05
-9.52618e-06
-2.62943e-06
3.6924e-06
8.5048e-06
2.96042e-06
-4.03682e-06
-5.85175e-06
7.06312e-06
9.59765e-05
4.2653e-06
0.000175914
-1.61652e-05
-2.45778e-05
1.36755e-05
0.000294801
-0.000470643
-1.78394e-05
-0.000847481
3.09793e-06
0.00134041
-0.00145341
-8.66245e-06
-0.00230738
-6.59641e-05
0.00337676
-0.00305536
0.00199158
-8.99366e-05
5.31234e-05
-0.00210393
5.25016e-06
0.0022308
-1.36044e-05
-5.81765e-06
-2.399e-06
-9.32801e-07
-1.39325e-07
-2.03084e-08
8.36356e-07
-4.62239e-05
-9.09709e-05
3.7848e-06
3.81048e-06
1.32293e-05
6.66024e-06
0.00646233
-3.91025e-05
4.72161e-05
1.38447e-05
0.0116371
8.78303e-06
-0.000316838
-0.000172649
-8.79612e-05
-4.09664e-05
-1.72917e-05
-6.56548e-06
-2.03721e-05
0.000123554
8.80671e-05
8.80173e-05
0.000123625
-2.03706e-05
-6.56616e-06
-1.73059e-05
-5.22476e-05
0.000371968
-2.75508e-05
-1.17879e-05
1.7019e-05
5.6781e-05
0.000158335
-5.71099e-05
-2.59769e-05
-1.65554e-05
-1.8807e-05
1.11633e-05
0.000513586
-4.34331e-05
-7.18208e-05
2.34051e-05
0.000812664
-0.00123707
-3.61398e-05
0.00200599
-0.00290707
-5.7657e-05
0.00443361
-0.00608556
-3.85825e-05
-0.00915337
1.39637e-05
0.0116363
-0.0113388
-0.000466184
0.00880163
-0.00020308
-0.000245805
-1.22105e-05
2.73074e-05
-0.000181078
-0.00010179
-0.000215332
-0.000408558
-0.000434505
-0.000871317
-0.00121345
-0.00217019
-0.00505838
0.00747043
-0.00717933
0.00395838
-0.0122391
-0.0152265
-0.00699081
0.00937805
-0.00127898
0.000616144
0.0109484
7.32077e-05
0.0169117
-0.000128161
-6.92564e-05
-3.13983e-05
-3.40513e-05
-7.28496e-05
4.70694e-05
-0.000106156
-0.000139884
1.315e-05
-0.00017264
0.000113613
7.2972e-05
-8.79683e-05
-4.09557e-05
-0.000256779
0.0024071
0.00172033
0.000290902
-0.0024425
-0.00244287
0.00172071
-0.000256796
0.00240678
-0.000101872
-2.20608e-05
0.000158523
-2.61383e-05
5.8903e-05
6.12374e-05
0.000395676
-0.000144252
0.0051692
0.0037015
-0.000484115
9.8261e-05
5.11868e-05
0.00242103
-2.60193e-05
0.00636368
-9.48878e-05
0.000152064
0.000542196
0.00293685
0.0092684
-0.00382586
0.000308338
-0.00134145
-0.00881999
0.0214545
-0.0127692
0.00105578
-0.000114191
-0.000793905
0.00396169
6.35582e-05
0.00116424
0.00400995
-0.000152591
-0.000837124
0.00116365
0.0122041
0.00822431
0.0205465
0.0117837
0.0167729
0.0183869
-0.000771421
0.0019012
0.000900676
0.000397569
-0.000101772
0.000390898
0.000879234
-0.000143955
-0.000484177
6.17308e-05
-2.20429e-05
0.000122789
4.98405e-05
1.73428e-05
3.7331e-06
-3.7441e-07
-3.564e-07
3.04312e-07
2.61298e-05
0.000897517
2.46117e-06
6.96269e-06
8.9962e-05
0.00646187
0.000129707
-0.000306212
-0.000170285
0.000272652
0.000567935
7.52797e-06
-2.46437e-05
-0.000180558
-0.000403213
0.00137814
0.00456503
0.00234949
0.000428535
-0.000151866
0.00184998
0.000992247
0.00264796
0.000395988
-4.31924e-05
0.000799019
-7.43465e-06
-8.98807e-06
-6.09253e-06
2.71525e-06
1.7809e-05
5.90076e-05
0.000159368
-0.000316748
0.000989098
-7.26382e-05
-2.1627e-05
-3.07116e-06
0.000322206
-1.17917e-05
0.000127904
8.67674e-06
7.20712e-07
8.2523e-07
-1.58255e-07
-2.14003e-06
9.27058e-07
7.88984e-07
-3.4047e-06
-6.43986e-07
-5.70631e-08
1.1122e-05
3.54889e-06
-1.27558e-05
-6.69453e-06
7.18904e-06
-1.13904e-06
2.06549e-06
-4.96692e-06
5.29655e-05
0.00312291
-5.74746e-05
-6.83569e-05
0.00197241
-9.46048e-05
-0.00192412
7.1224e-07
6.21387e-06
3.21325e-06
-5.64302e-05
-1.73886e-05
-0.000421543
-3.61671e-05
-1.76343e-05
-7.768e-06
-4.19117e-06
-6.93326e-06
-1.75634e-08
8.02818e-06
0.012141
0.0102222
4.84694e-05
-0.00136726
4.82465e-05
0.0181848
0.0205475
-2.31332e-06
1.12572e-06
1.70183e-05
6.4003e-06
4.16793e-05
3.55098e-05
-7.68122e-05
-7.64911e-05
2.29683e-06
-5.53077e-05
1.79962e-05
8.02588e-06
-4.01771e-06
-5.02186e-06
-3.85848e-06
2.52818e-07
-8.57241e-08
-6.01586e-07
3.26902e-06
4.72438e-06
3.69243e-06
8.51741e-06
1.19608e-05
-9.52357e-06
6.00574e-06
4.5891e-06
9.18874e-06
2.57966e-06
6.52908e-06
6.21531e-06
6.52979e-06
9.18822e-06
4.5882e-06
1.19613e-05
6.00466e-06
-9.52427e-06
1.66976e-05
-2.62703e-06
8.51573e-06
3.69334e-06
4.72679e-06
3.26651e-06
-6.03545e-07
-2.76579e-07
1.82991e-05
-1.94306e-05
1.79992e-05
-1.80691e-07
2.55955e-07
-3.86004e-06
-5.02095e-06
-4.01444e-06
-8.97618e-06
1.48367e-06
-1.05049e-05
-1.13471e-06
5.44875e-06
-6.31077e-06
2.41259e-05
-1.26609e-06
5.4407e-06
-1.14054e-06
-1.04988e-05
1.48147e-06
-1.02611e-05
2.30949e-05
-1.22717e-05
-8.55661e-06
2.76342e-05
2.76047e-05
7.6568e-06
-5.4653e-05
-2.03707e-05
0.000123565
1.92852e-05
0.000127901
-0.000175254
8.68642e-06
0.000285928
-0.000334944
0.000188734
-4.74758e-06
-0.000107163
9.06338e-05
2.58067e-06
7.11373e-06
1.60627e-05
2.65931e-05
1.37972e-05
-9.41575e-05
-0.000183235
0.00396177
-0.00325407
0.012945
-0.00984333
0.00155422
0.012321
-0.000268232
-0.0127506
0.00937793
-0.00699072
-0.0152261
-0.0122385
-0.0127689
-0.0132501
0.0214547
0.0042106
0.00293773
-7.96786e-05
-0.00758373
-0.0148983
-0.00708895
-0.0127305
-0.00708857
-0.0148991
-0.00758358
-0.0132507
0.0214547
-0.0122384
-0.0127693
-0.0152266
-0.00699064
0.00937804
-0.0127506
0.0189544
-0.0193744
0.0129448
0.00155465
0.0123213
-0.00984326
0.00617522
0.0142893
0.0102218
0.00767525
0.0177212
0.00644068
0.00418417
0.00994461
-0.0108951
-0.0108948
0.00418419
0.00644025
0.017721
0.00767536
0.0102217
0.0121397
0.0142907
0.00617619
0.00769675
0.00677694
-0.00366907
0.0181842
0.0200828
0.0205455
0.0166924
0.0167723
0.0183867
0.0167727
-0.0287267
6.33038e-05
6.36632e-05
-0.00842921
0.0166922
0.0205455
0.0200829
0.0181848
0.00677645
0.00769671
0.00578011
-0.00026286
-0.000237762
-0.000258111
-0.00627254
-0.00833568
-0.00825481
-0.0191412
-0.0222843
0.00395894
-0.00717933
0.0160374
-0.0113383
0.00880169
-0.00608552
0.00443337
-0.00290702
0.00200588
-0.00123711
0.000812668
-0.000470597
0.000294804
-0.000160987
9.59765e-05
-5.12645e-05
5.41659e-05
-5.96095e-05
5.84633e-05
-5.53157e-05
4.16786e-05
6.39629e-06
3.55444e-05
-1.22849e-05
2.31016e-05
-1.02552e-05
8.02397e-06
-1.25537e-06
2.58229e-06
7.1246e-06
1.60469e-05
2.65173e-05
1.36663e-05
-9.43387e-05
-0.00018348
0.00396157
-0.00325401
-0.00117474
0.00201361
0.000518198
-0.00732364
-0.0073237
0.0020136
-0.00117464
0.00051824
-0.00326316
-0.0193746
0.0189544
-0.00127874
-0.0150233
0.00160323
-0.000779222
0.0019725
-0.000238253
-0.000255387
-0.00224847
-0.00100434
-0.00224844
0.00160298
0.00421046
0.009268
0.00293781
-0.00221155
-0.00221144
0.00926814
0.000587194
-0.00563405
0.00636353
0.00636351
-9.47355e-05
-0.00563404
0.000308356
0.00167684
0.00208686
0.00105598
-0.00882023
0.00104356
0.000428095
0.0131924
-0.00363746
0.00373589
-0.00657957
-0.00907407
-0.019471
-0.0142424
0.0277193
-0.0137807
0.0154995
0.0155001
0.000371717
0.0108889
-0.000184597
-0.00762954
0.00563057
-7.58939e-05
-0.00393811
0.00268035
-1.89276e-05
-0.00179198
0.00114519
-8.30669e-07
-0.000724726
0.000437706
2.93587e-06
-0.000263182
0.000149895
2.47241e-06
-8.8263e-05
4.60772e-05
1.9236e-06
-3.14099e-05
-2.98334e-06
-2.31553e-05
-2.31556e-05
2.57939e-06
-2.91969e-06
1.08997e-06
-5.39145e-06
-1.35426e-07
3.35103e-06
3.3494e-06
-4.4253e-06
-2.21195e-07
3.92098e-06
3.92031e-06
-3.4302e-06
4.01703e-07
7.17299e-06
7.17032e-06
-1.91043e-06
8.69371e-07
-3.04104e-06
-3.04912e-06
-4.97184e-06
-2.90929e-06
-3.88481e-06
-4.22357e-06
-7.02946e-06
-2.81685e-06
5.06181e-06
-8.985e-06
7.54436e-07
3.54796e-06
1.11202e-05
-8.58303e-06
-3.40658e-06
-6.44631e-07
-6.29028e-06
-1.43579e-08
6.15079e-06
-1.16197e-05
-1.39059e-07
7.13705e-07
1.12373e-05
-1.52963e-06
-1.77444e-07
9.70474e-07
5.18821e-07
2.27104e-06
7.33093e-06
2.00435e-05
5.08755e-05
0.000124084
0.00017489
8.88569e-06
-0.0159022
0.0169117
-0.0174753
0.0153655
-0.0115017
0.00874766
-0.00633129
0.0044286
-0.00305506
0.00199127
-0.00131407
0.000798907
-0.000506201
0.000285961
-0.000175266
9.06542e-05
2.29497e-06
-7.64806e-05
-7.68409e-05
-5.46285e-05
8.80195e-05
2.31117e-05
8.80523e-05
-0.000168736
-0.000232389
-0.000233911
0.000378814
0.000371873
5.29865e-05
-0.000641987
2.14139e-05
-0.000506217
-1.24449e-05
0.00055235
-0.000557244
-4.17112e-06
0.000897438
-0.00084734
0.000513559
1.55988e-06
0.000322181
-1.95253e-06
-0.000191374
0.000102632
-8.37152e-07
5.84617e-05
-1.33824e-06
-1.9432e-05
-1.78208e-07
-1.5275e-06
5.06209e-06
-2.81929e-06
-7.0308e-06
-4.22412e-06
-3.88278e-06
-2.909e-06
-4.96474e-06
2.06241e-06
-1.91111e-06
-9.68224e-08
-1.27523e-05
3.54464e-06
3.14275e-07
7.53747e-07
1.11182e-05
-8.98224e-06
1.12361e-05
7.13713e-07
-9.19142e-07
-3.43057e-06
8.33874e-07
4.4252e-06
1.38685e-05
3.51782e-05
7.29793e-05
0.00011361
9.84182e-05
5.12663e-05
0.00242101
-0.00248913
-0.00591206
-0.00444518
-0.00192414
0.000972742
-0.00011438
-0.000267717
-0.0013414
-0.0150232
-0.000779118
0.00197229
-9.45368e-05
0.000151999
0.000303138
-0.00913827
0.00854631
-0.0114431
0.00303623
-0.0308292
0.00295753
-0.0108679
5.22743e-05
0.00979976
0.0097358
-0.0129221
-7.94394e-05
0.00137806
0.00456548
-0.000180873
-0.0050574
-0.00918216
-0.0109741
-0.00137952
-0.00217338
-0.00280183
-0.00121322
-0.00043442
-0.000869814
-0.000672036
-0.000349801
-0.000408388
-1.2022e-05
-0.000246156
0.000129773
0.0116365
-0.012673
0.00976302
-0.0101087
-0.000306803
0.0125833
-6.85841e-05
-0.000128099
-0.000255502
-0.000238534
-0.00326318
-6.43251e-05
-0.000479731
0.000308696
-0.00382519
-7.96198e-05
0.00683648
-0.00255453
-0.0107256
-0.00152355
0.000427476
-0.000662188
-0.000992881
-0.000714353
-0.000384685
-0.000175901
-7.28239e-05
-2.80964e-05
-9.17347e-06
-1.82777e-07
5.22805e-06
5.22845e-06
5.53004e-06
-7.05864e-06
-2.38906e-05
-6.59692e-05
-0.000161821
-0.000180912
2.73877e-05
-0.000215098
-0.000101823
-4.34387e-05
-7.17224e-05
2.34615e-05
2.61323e-05
0.00134037
-0.00145339
0.000897427
-0.000929993
-2.96971e-05
0.00144589
-0.00230719
-6.5904e-05
0.00337666
-0.0051189
-0.000141682
0.00699161
-3.64398e-05
-0.00701798
0.0049501
6.50245e-06
0.00646214
-0.00915356
1.38346e-05
4.7215e-05
-6.91749e-05
-3.13577e-05
-1.76895e-05
-0.00338752
0.00223061
5.34418e-06
0.0031228
-0.00465816
-5.75662e-05
9.01176e-05
7.68615e-06
-2.46482e-05
7.28837e-05
0.0109484
0.000616454
-0.00127872
0.00747005
-0.000402795
-0.000501866
0.00234901
0.00822248
0.0122036
0.00389714
0.00265262
0.000429004
-0.000306844
0.000568119
0.000272844
6.9988e-06
2.5473e-06
3.10543e-07
-3.44942e-07
-1.61723e-05
-2.44943e-05
1.36984e-05
1.11659e-05
0.000513566
-0.000557275
0.000322195
-0.000334964
-1.24682e-05
0.00055237
-4.20003e-06
-5.81014e-06
-1.35997e-05
-8.65496e-06
8.46558e-07
3.10321e-06
-0.000847432
-1.78709e-05
-4.62241e-05
0.00114517
-2.15757e-05
-0.0017922
-1.9025e-05
0.00268041
-7.22104e-05
-0.00393831
-7.60769e-05
0.00563035
-0.000202514
-0.00762944
-0.000185317
0.0108888
-0.000466419
-0.0126955
-0.000745646
0.0221677
0.016171
-0.00259897
0.000542202
0.000542135
0.0221681
-0.000745527
-0.0126954
-0.00259887
-0.0137801
0.00373618
0.027719
-0.00188726
-0.0142422
-0.0194699
-0.00907365
-0.0222852
-0.00657947
-0.0025544
0.00683652
-0.00382533
0.0010439
0.00208738
-0.00882014
0.00105613
-0.00134156
-0.000480143
-0.000793947
-0.000250971
-2.60867e-05
-0.000148124
0.000211116
-0.000695986
0.000371681
-0.0105369
0.0084659
-0.00609674
0.00426378
0.00426357
6.90986e-06
-0.00300653
2.7272e-05
0.00192711
3.17913e-06
-0.00129987
2.6259e-05
0.000777756
2.14823e-06
-0.000501461
1.84651e-05
0.000279885
7.83595e-07
-0.000176122
1.2897e-05
8.9574e-05
-4.61647e-07
-5.95773e-05
1.0319e-05
2.44988e-05
3.48373e-06
2.44971e-05
-2.9844e-06
-3.14126e-05
1.92359e-06
4.6079e-05
3.22813e-06
-8.82647e-05
2.47361e-06
0.000149895
2.45698e-06
-0.00026319
2.9269e-06
0.000437691
-3.05668e-06
-0.00072474
-8.72174e-07
2.62311e-05
0.00077775
-1.73506e-05
-0.00050143
0.000279875
-0.00017612
8.95742e-05
3.73373e-06
-5.95773e-05
1.03156e-05
-2.87033e-06
-7.70038e-06
1.28958e-05
-1.4275e-05
-3.40694e-05
-8.06544e-05
-0.000172195
-0.000286375
-0.000260645
-4.99145e-05
-4.9655e-05
-0.0107253
-0.0109739
-0.0013794
-0.000261381
-0.0105363
-0.000444241
0.00846577
5.10772e-05
-0.00609658
-3.60299e-05
-0.000139868
-0.000528998
5.08993e-05
-0.000421301
-0.000324476
6.83539e-06
-0.00300652
0.00192723
-0.00129993
3.12929e-06
-0.000168576
-5.62456e-05
-7.47997e-05
2.12846e-06
-2.82789e-05
7.79889e-07
-1.08096e-06
-8.93501e-06
-4.61681e-07
-1.12966e-06
-5.01938e-06
1.09231e-06
-2.91838e-06
5.79943e-06
2.0936e-06
2.09316e-06
5.79922e-06
2.7642e-06
-1.07026e-06
4.54932e-06
-1.11443e-05
-5.26209e-07
-3.93167e-07
8.72165e-06
9.01807e-07
-5.23216e-06
2.6202e-06
6.91871e-06
4.26626e-06
7.95631e-06
3.26724e-06
-7.1606e-07
-7.20764e-07
-6.73749e-07
-4.61424e-08
4.41208e-06
-6.73523e-07
2.76567e-06
4.55211e-06
-1.06925e-06
-1.48485e-06
-5.24265e-07
8.72285e-06
-3.93354e-07
-1.14016e-06
-1.41161e-07
-1.16203e-05
6.15158e-06
-1.64984e-08
-6.29037e-06
-6.4422e-07
-5.34897e-08
-7.19739e-07
-5.40982e-07
2.03677e-06
-1.48541e-06
-9.79463e-07
-7.35301e-08
4.79274e-07
-5.33191e-08
-5.66017e-08
-6.53031e-08
-7.37141e-08
2.03739e-06
-5.39283e-06
-9.76887e-07
-2.87084e-06
5.30342e-07
1.50023e-06
4.40053e-06
1.19428e-05
3.16375e-05
8.56852e-05
-0.000106268
-0.000443615
-0.000106269
0.000174769
-0.000466155
0.0160376
8.69404e-06
0.0116369
1.40349e-05
0.00976328
-3.66652e-05
0.00699219
-0.000141776
-0.00511873
0.0044289
6.70941e-05
0.00241441
0.00240689
0.000257089
-0.00347711
0.00514473
0.00516954
0.000373723
-0.00690125
2.57225e-05
-0.00633209
0.00874769
-0.0101088
0.0125831
-0.000306441
-0.0115024
-7.90521e-05
0.00973513
0.00980011
5.19327e-05
-0.0129217
0.0153662
-0.0174753
-6.8418e-05
-0.012673
0.0169117
-0.0159021
0.0109488
0.00030318
-0.00913828
-0.000359382
0.00854643
-0.000703716
-0.0114435
-0.00911291
0.00303622
0.00295823
-0.0308299
0.0122042
0.0117831
0.00116349
-0.000771512
-0.00817748
-1.64674e-06
0.00697961
0.0069806
-0.000836308
-0.00650129
0.000373775
0.00516897
0.0051454
-0.00690125
2.52713e-05
-0.00347716
0.000257245
0.00240676
0.00241464
6.70074e-05
-0.00157874
0.00012766
0.0010005
0.00101095
4.41647e-05
0.000122881
4.9891e-05
1.73457e-05
3.73329e-06
-3.76533e-07
-4.03755e-06
-5.88244e-06
7.06978e-06
4.26529e-06
0.000175908
-0.000191381
0.000102643
-0.000107174
-4.74219e-06
0.000188748
-1.96032e-06
-2.40022e-06
-9.32051e-07
-8.4004e-07
-1.43307e-07
-1.24647e-07
-1.946e-05
-6.93045e-06
1.04893e-06
2.96872e-06
5.52845e-06
1.46983e-06
-1.59469e-07
-8.60896e-08
-1.65829e-08
-2.73178e-06
-7.43283e-06
-1.88073e-05
-4.32082e-05
-9.00703e-05
-0.000170541
6.2027e-05
0.000990429
0.00184941
0.00087903
0.000397782
-2.18952e-05
-0.00010183
-0.000144108
-0.00335136
-0.00244299
0.000290744
0.0017202
0.00172057
-0.000256805
-0.00112385
0.000148298
0.000711852
0.000712004
-0.000122441
-0.000631359
5.30278e-05
0.000371885
0.000378859
-0.000642025
2.14223e-05
-2.58969e-05
0.000160074
0.000390784
0.000158287
5.90879e-05
-1.65917e-05
-2.7568e-05
-0.000232399
1.92842e-05
0.000123594
0.000127913
-0.000233895
8.67935e-06
-8.99302e-06
1.77877e-05
5.6767e-05
1.70191e-05
2.68945e-06
-6.09771e-06
-1.23542e-06
-2.32933e-06
1.12575e-06
-6.35649e-06
-6.95181e-06
-6.38158e-06
-5.37844e-06
-6.63008e-06
-6.91291e-06
-6.36085e-06
7.18873e-06
-6.77407e-06
7.35822e-06
1.72386e-05
-1.17834e-05
-2.03726e-05
-6.56121e-06
-1.40055e-07
7.68523e-07
-9.65549e-05
-2.46598e-06
-2.42291e-08
1.55841e-06
-0.000304277
-7.76407e-06
-1.9993e-05
1.84707e-05
-1.9987e-05
-4.62258e-05
-9.10044e-05
5.08401e-05
0.000124032
-0.000202799
0.00880171
-3.90634e-05
0.00646236
6.64245e-06
0.00495001
-1.77829e-05
0.00337686
-6.59832e-05
-0.00230717
0.00199139
4.42035e-05
0.00101085
0.00100059
0.000127602
-0.00157857
-0.0015396
-0.000256867
-0.00112357
-0.000101897
0.000900212
0.00190006
0.00400913
-0.000152798
-0.000152759
0.0011633
-0.000771394
-0.0108692
-0.00817612
-0.000344408
0.000152032
4.7139e-05
-0.000128134
-6.92599e-05
-7.28495e-05
1.31891e-05
-0.000139803
-3.61034e-05
-9.09963e-05
2.73174e-05
3.81595e-06
-3.40269e-05
-1.52934e-05
-6.68256e-06
-2.81704e-06
-1.10164e-06
-3.8265e-07
1.08087e-06
9.71404e-07
5.19498e-07
2.27784e-06
7.32947e-06
2.00206e-05
-2.14615e-05
0.00200571
-3.6129e-05
0.00134043
3.12493e-06
-0.00145337
-8.65553e-06
0.00144587
-2.96961e-05
-0.000929979
0.000798912
-0.00131414
-4.32589e-05
2.60653e-05
2.35119e-05
-0.000161833
-0.000349829
-0.000671302
-0.000285274
-0.000171732
-8.04417e-05
-3.39757e-05
-6.60142e-05
-2.39117e-05
-1.4229e-05
-5.50612e-06
-7.05178e-06
5.53138e-06
2.97464e-06
5.53448e-06
-5.12597e-05
-2.46231e-06
5.41665e-05
-1.22695e-07
1.82997e-05
-1.73868e-08
-1.77522e-07
-9.32005e-07
-2.39867e-06
-5.81162e-06
-1.36157e-05
-3.13317e-05
1.32417e-05
3.801e-06
5.28076e-06
-0.00210367
0.00223058
-0.00338757
0.00312302
-0.00290702
-5.76475e-05
0.00443321
-7.22885e-05
-0.00608548
-1.16137e-05
-0.000245646
-0.0113384
-0.00280091
-0.00717961
0.00747063
-0.00825655