/*--------------------------------*- C++ -*----------------------------------*\
| =========                 |                                                 |
| \\      /  F ield         | OpenFOAM: The Open Source CFD Toolbox           |
|  \\    /   O peration     | Version:  2306                                  |
|   \\  /    A nd           | Website:  www.openfoam.com                      |
|    \\/     M anipulation  |                                                 |
\*---------------------------------------------------------------------------*/
FoamFile
{
    version     2.0;
    format      ascii;
    arch        "LSB;label=32;scalar=64";
    class       volScalarField;
    location    "0.7";
    object      gradTz;
}
// * * * * * * * * * * * * * * * * * * * * * * * * * * * * * * * * * * * * * //

dimensions      [0 -1 0 1 0 0 0];

internalField   nonuniform List<scalar> 
2658
(
-0.0661669
-0.0623466
-0.0371613
-0.0331224
-0.0440573
-0.044903
-0.0354
-0.0343805
-0.0330961
-0.0447919
-0.0501607
-0.0433912
-0.0611732
-0.0582851
-0.0588451
-0.0603735
-0.0595656
-0.0602518
-0.0586909
-0.0574798
-0.0601145
-0.0541797
-0.0613537
-0.044305
-0.0705827
-0.0601251
-0.054575
-0.0623568
-0.0647349
-0.0548132
-0.0647342
-0.054575
-0.0601244
-0.0613527
-0.0705824
-0.044304
-0.0536543
-0.0811988
-0.054179
-0.0601159
-0.0574805
-0.0586909
-0.0602511
-0.0825799
-0.0483397
-0.0478381
-0.0501608
-0.0825796
-0.0603743
-0.0588454
-0.0582845
-0.0611738
-0.0548764
-0.084536
-0.0612316
-0.058897
-0.0825662
-0.048037
-0.0449227
-0.0603086
-0.082567
-0.0588977
-0.061232
-0.084536
-0.0507851
-0.0434761
-0.0500428
-0.0423751
-0.0443104
-0.0443094
-0.0334558
-0.0345775
-0.024663
-0.0262209
-0.0184843
-0.0260057
-0.026145
-0.0184565
-0.0192359
-0.0187829
-0.0261435
-0.0246484
-0.0343954
-0.0355097
-0.0312688
-0.0174074
-0.00871188
-0.00388985
-0.00155224
-0.000555709
-0.000179843
-6.8512e-05
-3.95659e-05
-3.48448e-05
-3.13117e-05
-4.22678e-05
-3.06478e-05
-4.3897e-05
-3.05704e-05
-3.06476e-05
-4.36675e-05
-3.0978e-05
-3.99322e-05
-3.67591e-05
-3.14565e-05
-4.03393e-05
-3.08473e-05
-6.80945e-05
-3.14059e-05
-3.99535e-05
-3.63705e-05
-3.01927e-05
-3.96452e-05
-3.0192e-05
-3.63712e-05
-3.99573e-05
-3.14597e-05
-4.03398e-05
-3.99324e-05
-3.67588e-05
-3.09715e-05
-4.36615e-05
-3.06464e-05
-3.05682e-05
-3.66006e-05
-3.67512e-05
-3.4844e-05
-4.22705e-05
-3.06475e-05
-3.13128e-05
-4.45527e-05
-3.14051e-05
-3.75168e-05
-3.13581e-05
-4.07756e-05
-3.28751e-05
-3.32194e-05
-4.66859e-05
-3.71088e-05
-3.711e-05
-3.32173e-05
-3.28747e-05
-3.37484e-05
-3.38128e-05
-4.19317e-05
-3.37982e-05
-4.21053e-05
-4.69726e-05
-2.94288e-05
-2.95666e-05
-2.65533e-05
-3.98813e-05
-4.50892e-05
-2.44706e-05
-3.6015e-05
-3.54922e-05
-3.25579e-05
-3.45652e-05
-3.09355e-05
-3.43874e-05
-3.52278e-05
-3.11604e-05
-3.52077e-05
-3.38379e-05
-3.01663e-05
-3.37027e-05
-3.14539e-05
-3.63692e-05
-6.45092e-05
-7.77573e-05
-0.000161485
-0.000305434
-0.000543131
-0.000937894
-0.00158391
-0.00258797
-0.00412732
-0.00638207
-0.00959871
-0.0140371
-0.0198818
-0.0274312
-0.0366464
-0.0465563
-0.0449207
-0.044033
-0.0445065
-0.0447912
-0.0440567
-0.0331218
-0.0449034
-0.0500421
-0.0434763
-0.0507852
-0.0433913
-0.0696563
-0.0312687
-0.0174073
-0.00871182
-0.0038898
-0.00155221
-0.000555692
-0.000179837
-6.85118e-05
-3.95665e-05
-3.04345e-05
-3.43983e-05
-6.86015e-05
-3.51882e-05
-3.51889e-05
-3.43995e-05
-3.0435e-05
-6.86023e-05
-3.1571e-05
-3.67509e-05
-3.66014e-05
-4.18775e-05
-3.45892e-05
-3.90907e-05
-3.0176e-05
-3.15417e-05
-4.06431e-05
-7.04108e-05
-6.86567e-05
-7.5207e-05
-6.86544e-05
-3.90905e-05
-3.08468e-05
-3.46699e-05
-6.80938e-05
-3.56088e-05
-3.56093e-05
-3.46701e-05
-4.26836e-05
-3.42702e-05
-3.50029e-05
-3.50033e-05
-6.79427e-05
-3.42708e-05
-3.69838e-05
-3.06277e-05
-3.01315e-05
-2.7668e-05
-3.27249e-05
-2.99348e-05
-3.14592e-05
-5.27239e-05
-6.70313e-05
-4.7455e-05
-5.50393e-05
-3.3855e-05
-2.73067e-05
-3.47519e-05
-4.93265e-05
-0.000108239
-0.00017945
-0.00017945
-0.000153054
-0.000323222
-0.000267538
-0.000569241
-0.000987892
-0.000798277
-0.00164796
-0.00270958
-0.00214084
-0.00428767
-0.00665566
-0.00513432
-0.00997329
-0.0145832
-0.0109778
-0.020672
-0.0284327
-0.0208623
-0.0378851
-0.0500328
-0.0366714
-0.0595713
-0.0427719
-0.0566015
-0.0566012
-0.0623558
-0.0643205
-0.0555875
-0.0511943
-0.0753473
-0.0486191
-0.0486194
-0.0490465
-0.0753479
-0.0496467
-0.0496469
-0.0475539
-0.0749137
-0.061458
-0.0614578
-0.0751882
-0.10804
-0.0751885
-0.0764765
-0.106847
-0.0764026
-0.0889755
-0.0735335
-0.0717009
-0.0587975
-0.0681295
-0.0837706
-0.0761668
-0.0475539
-0.045639
-0.074444
-0.05911
-0.0765031
-0.106853
-0.0764501
-0.0845095
-0.0777591
-0.078535
-0.0777585
-0.0744438
-0.0587975
-0.0717013
-0.0764003
-0.106847
-0.0764757
-0.0681304
-0.0837706
-0.084509
-0.0764532
-0.106851
-0.0765041
-0.0591097
-0.0680724
-0.0756732
-0.10812
-0.0752686
-0.0616982
-0.0750121
-0.0474636
-0.0615073
-0.0657002
-0.0667981
-0.0329591
-0.0184409
-0.00924819
-0.00413282
-0.00164944
-0.00059004
-0.000190567
-0.000176163
-0.000159667
-0.000159124
-0.0001591
-0.00016095
-0.000291978
-0.000526594
-0.000893809
-0.00153162
-0.0024673
-0.0039877
-0.00608806
-0.00927618
-0.0133953
-0.0192358
-0.0261443
-0.0355099
-0.0330955
-0.0343805
-0.0353995
-0.0345783
-0.0261109
-0.0188035
-0.0261112
-0.0188753
-0.0191988
-0.0187472
-0.0131708
-0.0134374
-0.00914009
-0.00906809
-0.00912115
-0.0133958
-0.0130456
-0.0133673
-0.0132821
-0.00927967
-0.00914795
-0.00913354
-0.0133491
-0.0130309
-0.0189285
-0.0187186
-0.0258998
-0.0347676
-0.0333601
-0.0445065
-0.0424217
-0.0478384
-0.08258
-0.0680727
-0.0615069
-0.0474633
-0.0667134
-0.0447045
-0.0344509
-0.0324907
-0.0182444
-0.0091495
-0.00408768
-0.00163086
-0.000583489
-0.000189132
-7.04104e-05
-4.06415e-05
-3.15405e-05
-6.7941e-05
-3.01749e-05
-3.45891e-05
-4.18765e-05
-7.2619e-05
-7.75836e-05
-7.79302e-05
-7.8138e-05
-7.82887e-05
-6.96911e-05
-4.15984e-05
-8.61834e-05
-0.00016482
-0.000178999
-0.000301785
-0.00027987
-0.000156516
-0.000174734
-0.000193962
-6.64088e-05
-6.6523e-05
-6.54071e-05
-5.55497e-05
-6.98696e-05
-0.00020685
-0.000186474
-0.000105684
-0.000193062
-0.000611034
-0.000600637
-0.000633689
-0.0017647
-0.00172079
-0.00106657
-0.0003541
-0.000338947
-0.000288846
-0.00029038
-0.000518902
-0.000517627
-0.000316188
-0.000290961
-0.000178888
-0.000193672
-0.000609981
-0.00174348
-0.00174358
-0.00442887
-0.00439174
-0.00441311
-0.00987176
-0.00999547
-0.00684087
-0.0028595
-0.00276522
-0.00245338
-0.00244839
-0.00393555
-0.00391688
-0.00254237
-0.00245739
-0.00150509
-0.000946631
-0.000889707
-0.000563255
-0.000887078
-0.00151105
-0.0009462
-0.00088721
-0.00052109
-0.000315744
-0.000366326
-0.000355181
-0.000323216
-0.000146832
-0.000181215
-8.34696e-05
-9.22467e-05
-3.95227e-05
-8.67137e-05
-0.000108534
-0.000111521
-9.8869e-05
-0.000103734
-0.000103998
-7.28329e-05
-0.00010892
-5.66269e-05
-6.68912e-05
-0.000203047
-0.000185118
-0.000361131
-0.000339184
-0.00061182
-0.00174565
-0.0044405
-0.0044395
-0.0100709
-0.010024
-0.0202367
-0.02031
-0.0197061
-0.0349129
-0.0370781
-0.0277936
-0.0146083
-0.0142996
-0.0133486
-0.0132816
-0.0189283
-0.0187825
-0.0130456
-0.013367
-0.00909574
-0.00610174
-0.0060673
-0.00408874
-0.00603973
-0.00914775
-0.00609806
-0.00605903
-0.00393618
-0.00254165
-0.00287189
-0.00108236
-0.00104492
-0.000987857
-0.000465465
-0.000569214
-0.000267531
-0.000274562
-0.000562057
-0.000969308
-0.00161288
-0.00161287
-0.00132072
-0.00263706
-0.00217965
-0.00417442
-0.00333773
-0.00645292
-0.00521503
-0.00966977
-0.00754063
-0.014097
-0.0111143
-0.0199649
-0.015171
-0.0273333
-0.0210213
-0.0367338
-0.0270932
-0.0461092
-0.0355609
-0.0610466
-0.0514697
-0.0610465
-0.0427718
-0.0595699
-0.0366709
-0.0500325
-0.027246
-0.0378843
-0.020862
-0.0284323
-0.0153109
-0.0206716
-0.0109777
-0.0145832
-0.00760011
-0.00997313
-0.00513418
-0.00665563
-0.00335567
-0.00428749
-0.00214077
-0.00270956
-0.00132162
-0.00164789
-0.000798248
-0.000814988
-0.00111131
-0.000389681
-0.000131053
-5.44845e-05
-4.55718e-05
-8.1024e-05
-0.000224289
-0.000647631
-0.00176155
-0.00435997
-0.00967725
-0.0191158
-0.0333414
-0.0494434
-0.0622498
-0.0599245
-0.0599244
-0.0535829
-0.0650301
-0.0466302
-0.0366159
-0.061853
-0.0442255
-0.0488638
-0.0423762
-0.0432607
-0.0421862
-0.0355607
-0.0461085
-0.0270927
-0.0367337
-0.0316937
-0.032976
-0.0184912
-0.0151705
-0.0199649
-0.0273324
-0.0210215
-0.0259861
-0.0138254
-0.0111142
-0.0140966
-0.00754051
-0.00966993
-0.00880566
-0.00928116
-0.00415433
-0.00166296
-0.00132069
-0.00263694
-0.00417448
-0.00645271
-0.00521486
-0.00654476
-0.00276386
-0.00173012
-0.00061936
-0.000202216
-0.00019668
-0.000153054
-0.000326229
-0.000184397
-0.000326231
-0.000274565
-0.000562061
-0.000470325
-0.000969359
-0.000815005
-0.00104493
-0.000598622
-0.000470304
-0.000554807
-0.000355182
-0.000108536
-9.22497e-05
-8.34735e-05
-0.000181223
-8.67182e-05
-0.00010824
-4.74544e-05
-4.9327e-05
-6.40784e-05
-3.47532e-05
-2.73068e-05
-3.38531e-05
-3.63686e-05
-5.50439e-05
-3.71597e-05
-3.12876e-05
-3.64525e-05
-2.99324e-05
-3.0128e-05
-3.27261e-05
-2.76655e-05
-3.43241e-05
-3.06545e-05
-3.13314e-05
-3.06556e-05
-2.78575e-05
-4.38971e-05
-3.43248e-05
-3.69854e-05
-3.64541e-05
-3.14052e-05
-3.1289e-05
-3.71582e-05
-3.73549e-05
-3.05357e-05
-2.82478e-05
-3.47554e-05
-3.36454e-05
-3.08979e-05
-3.59292e-05
-3.17224e-05
-4.05252e-05
-4.1672e-05
-6.71389e-05
-3.0957e-05
-4.30616e-05
-7.46546e-05
-7.5985e-05
-4.37192e-05
-0.000203126
-0.000620732
-0.00173272
-0.0043408
-0.00433714
-0.00971204
-0.0193717
-0.0345062
-0.0630565
-0.0587328
-0.0955378
-0.0555873
-0.0643218
-0.0918492
-0.0762002
-0.0761983
-0.0918495
-0.0970103
-0.0561617
-0.0776778
-0.0727639
-0.0746222
-0.0461915
-0.0598886
-0.0674197
-0.0770622
-0.107259
-0.0774056
-0.0899078
-0.0713068
-0.0832638
-0.0776402
-0.0792341
-0.0799325
-0.085278
-0.102621
-0.0799351
-0.0970106
-0.0776792
-0.0561612
-0.0488459
-0.0746219
-0.0598881
-0.0461913
-0.0468754
-0.0750123
-0.0616995
-0.0752675
-0.108119
-0.0756743
-0.0836114
-0.0788671
-0.0792341
-0.0799598
-0.077611
-0.0488455
-0.0695747
-0.0750176
-0.0830341
-0.0788687
-0.0773946
-0.0836113
-0.0765325
-0.0761671
-0.0456391
-0.0667133
-0.0447045
-0.0424215
-0.0458088
-0.0367397
-0.0203566
-0.0273783
-0.0261292
-0.025899
-0.0347679
-0.0343947
-0.0246483
-0.0261432
-0.018718
-0.0275264
-0.0204164
-0.0100777
-0.0143586
-0.00667124
-0.00276819
-0.00102501
-0.00102458
-0.001514
-0.00159083
-0.00108831
-0.000862852
-0.000558117
-0.000906727
-0.00153343
-0.00158284
-0.00248428
-0.00239277
-0.00150231
-0.00157479
-0.00390478
-0.00402466
-0.00611265
-0.00593661
-0.00401267
-0.00906796
-0.00913997
-0.0134375
-0.0131707
-0.00912102
-0.018747
-0.0184841
-0.0262211
-0.0260054
-0.0184564
-0.0289715
-0.0370017
-0.062349
-0.0617343
-0.0595672
-0.045595
-0.0451406
-0.0490874
-0.0372201
-0.037161
-0.020557
-0.0101648
-0.00448958
-0.00177439
-0.000629421
-0.000593492
-0.00104305
-0.000951716
-0.000901673
-0.0005763
-0.000901727
-0.00151977
-0.00162432
-0.00247196
-0.00247186
-0.00151981
-0.00163027
-0.000585716
-0.000192703
-0.000114559
-9.89386e-05
-0.000103609
-8.64738e-05
-5.53006e-05
-8.64852e-05
-0.000170311
-0.000188606
-0.000300304
-0.000300277
-0.000170324
-0.000116264
-9.00243e-05
-4.66712e-05
-4.66687e-05
-3.33449e-05
-4.17155e-05
-9.00313e-05
-8.61869e-05
-4.15956e-05
-6.96944e-05
-0.000156518
-0.000179011
-0.000279897
-0.000301779
-0.000164839
-0.000103612
-0.00011456
-0.000111522
-0.000190569
-0.000146834
-0.000161488
-0.000176165
-0.000288849
-0.000315743
-0.00051891
-0.000563286
-0.000889751
-0.000946666
-0.00150512
-0.00153166
-0.00157489
-0.00239291
-0.00248431
-0.00158296
-0.00150237
-0.000862928
-0.000906726
-0.000558153
-0.000517951
-0.000552493
-0.000893852
-0.000526606
-0.000517638
-0.00029097
-0.000316198
-0.000291991
-0.000174743
-0.000160953
-0.000159102
-0.000178891
-0.000290387
-0.000159126
-0.000159669
-7.75841e-05
-9.88663e-05
-7.79297e-05
-3.8512e-05
-7.81402e-05
-9.89373e-05
-7.82881e-05
-3.52707e-05
-3.43868e-05
-3.52266e-05
-7.28312e-05
-0.000104003
-0.000103736
-0.00010569
-6.9872e-05
-5.44861e-05
-0.000131056
-0.000389694
-0.00020685
-0.000633763
-0.00111136
-0.00289893
-0.00176486
-0.00441343
-0.00680387
-0.00680371
-0.00289881
-0.00217958
-0.0142514
-0.0142517
-0.0098722
-0.0197065
-0.0264815
-0.0264805
-0.0426319
-0.0426327
-0.0349133
-0.053584
-0.0650376
-0.0466308
-0.0465583
-0.0331635
-0.0449207
-0.0423764
-0.0483399
-0.0451406
-0.0657005
-0.0667984
-0.0329594
-0.0184411
-0.00924829
-0.00413289
-0.00164947
-0.000590048
-0.000465481
-0.000543148
-0.000558217
-0.00088723
-0.00094624
-0.00151107
-0.00160552
-0.00245749
-0.0025424
-0.00391699
-0.00398777
-0.00401285
-0.00593679
-0.00611261
-0.00402478
-0.00390484
-0.00398707
-0.00254933
-0.00394029
-0.00411793
-0.00608365
-0.00608359
-0.00394034
-0.00254933
-0.00398691
-0.00278904
-0.00178259
-0.000637262
-0.000211724
-7.21633e-05
-0.000116281
-6.68862e-05
-3.59903e-05
-2.4496e-05
-3.69526e-05
-4.07709e-05
-3.13614e-05
-3.75173e-05
-4.16696e-05
-3.14019e-05
-4.45507e-05
-3.09311e-05
-3.45642e-05
-6.71365e-05
-3.2556e-05
-3.54916e-05
-5.66205e-05
-6.64089e-05
-6.65196e-05
-6.54059e-05
-3.01664e-05
-3.38388e-05
-7.26196e-05
-3.52068e-05
-3.1162e-05
-3.56956e-05
-7.77594e-05
-3.95237e-05
-6.45088e-05
-3.37019e-05
-3.14514e-05
-5.5545e-05
-0.00019307
-0.000186482
-0.00035413
-0.000305446
-0.000338969
-0.000521108
-0.000611081
-0.000600723
-0.00106664
-0.000937952
-0.00158397
-0.00159087
-0.00245348
-0.00254169
-0.00393632
-0.00393564
-0.00408892
-0.00606746
-0.00610168
-0.00909607
-0.0092763
-0.00608829
-0.00667147
-0.00665598
-0.00605926
-0.00609824
-0.00603997
-0.00408771
-0.00163089
-0.0005835
-0.000189135
-0.000366328
-0.00108236
-0.00287191
-0.00276388
-0.00654481
-0.00681719
-0.00681716
-0.0144257
-0.0130305
-0.0188513
-0.018532
-0.0271022
-0.0246075
-0.0345673
-0.0331628
-0.0279422
-0.0148614
-0.00701593
-0.0029532
-0.00111253
-0.000376631
-0.000320324
-0.000529142
-0.000528527
-0.000528503
-0.000529192
-0.000320323
-0.000376635
-0.00111254
-0.000951742
-0.00153352
-0.00104312
-0.00035431
-0.000203065
-0.000629455
-0.00177449
-0.00278912
-0.00292758
-0.00108839
-0.0010251
-0.00102465
-0.00151406
-0.00174368
-0.00172097
-0.00285973
-0.00258812
-0.00412743
-0.00404912
-0.00638233
-0.00959885
-0.00918525
-0.0140378
-0.0198822
-0.0185327
-0.02613
-0.0246077
-0.0345679
-0.0366469
-0.0272464
-0.0274319
-0.0153112
-0.0277948
-0.0146089
-0.00684125
-0.00439226
-0.00442922
-0.0100248
-0.00999683
-0.0202382
-0.0203123
-0.0366178
-0.0370771
-0.0618559
-0.0442258
-0.0536545
-0.0812005
-0.0713072
-0.077405
-0.107258
-0.0770628
-0.06742
-0.0825807
-0.0488648
-0.0455957
-0.0440341
-0.0324909
-0.0182446
-0.00914959
-0.00971354
-0.0193588
-0.0271024
-0.0259861
-0.0138254
-0.0144258
-0.0148615
-0.0091254
-0.00407965
-0.00701597
-0.00295323
-0.0061123
-0.00926715
-0.00913979
-0.00932927
-0.0133785
-0.0133784
-0.00913982
-0.00611221
-0.00926693
-0.00669686
-0.00703753
-0.00435512
-0.00292748
-0.00170198
-0.0151252
-0.00995261
-0.0143916
-0.0191985
-0.0188754
-0.0130618
-0.0181915
-0.0324037
-0.0656132
-0.0619505
-0.0490467
-0.0659366
-0.0432608
-0.0421864
-0.0695753
-0.0511947
-0.0776105
-0.0750177
-0.0830337
-0.083263
-0.072766
-0.089908
-0.0776409
-0.0773958
-0.0803765
-0.0696564
-0.0480368
-0.0457875
-0.0369703
-0.0275547
-0.0246629
-0.0457871
-0.0623467
-0.0661688
-0.0582047
-0.0618345
-0.0603089
-0.0596182
-0.0423749
-0.0205336
-0.0101759
-0.00450032
-0.00669693
-0.0044897
-0.0101647
-0.0143917
-0.0130619
-0.0151254
-0.00703771
-0.00444072
-0.00174578
-0.000611872
-0.000193973
-0.000193674
-0.000610011
-0.00174357
-0.00276546
-0.00244849
-0.00443976
-0.0100714
-0.0143004
-0.0188516
-0.0273791
-0.0275265
-0.0143593
-0.0100779
-0.0204169
-0.0203578
-0.0367412
-0.0617363
-0.0458084
-0.0370032
-0.0623493
-0.0490881
-0.0289717
-0.0275551
-0.0205572
-0.0203176
-0.0372207
-0.00995361
-0.00276833
-0.00246741
-0.000339213
-0.000361162
-0.000108925
-0.000185146
-0.000593572
-0.00170221
-0.00435603
-0.0279422
-0.020315
-0.00760031
-0.00335575
-0.00132168
-0.000887104
-0.00035429
-0.000517936
-0.000552461
-2.82461e-05
-3.05352e-05
-3.73554e-05
-3.59286e-05
-3.15973e-05
-3.08934e-05
-3.36434e-05
-3.47573e-05
-2.78588e-05
-4.05252e-05
-3.17194e-05
-4.66859e-05
-4.51462e-05
-3.33434e-05
-4.17159e-05
-3.37578e-05
-3.69406e-05
-0.00665549
-0.0091333
-0.00918506
-0.0333591
-0.0468753
-0.0659364
-0.0765292
-3.15695e-05
-2.52928e-05
-0.00333774
-0.00390236
-0.00154799
-0.0177078
-0.0040489
-0.00927937
-0.000558189
-0.00160547
-3.56972e-05
-3.85116e-05
-3.52678e-05
-0.0735333
-0.0889754
-0.0764854
-0.0771725
-0.0764844
-0.0548766
-0.0582055
5.66185e-05
6.68873e-05
0.000203042
0.000178998
0.000156511
0.000164818
0.000301784
0.00027986
0.000174726
0.000160946
7.8286e-05
3.52681e-05
3.45685e-05
3.09402e-05
3.43902e-05
3.52297e-05
3.11665e-05
3.52105e-05
3.38423e-05
3.01728e-05
3.37081e-05
3.14661e-05
3.63711e-05
3.95225e-05
5.50428e-05
3.38567e-05
2.73082e-05
3.71575e-05
3.47513e-05
2.52965e-05
3.47509e-05
2.73064e-05
3.38558e-05
3.63714e-05
5.50428e-05
3.95227e-05
7.77565e-05
6.45043e-05
3.14636e-05
3.37058e-05
3.0172e-05
3.38423e-05
3.5209e-05
7.26189e-05
7.79252e-05
7.81355e-05
7.82842e-05
7.28273e-05
3.52294e-05
3.43883e-05
3.09392e-05
3.45688e-05
3.25683e-05
6.71348e-05
3.54925e-05
4.17151e-05
9.00266e-05
8.64824e-05
5.5296e-05
4.66686e-05
9.00187e-05
4.17134e-05
3.54901e-05
6.71374e-05
6.96878e-05
4.1594e-05
8.61793e-05
0.000103613
0.000170324
0.000170309
0.000188601
0.000300267
0.000320316
0.00052913
0.000558111
0.000517925
0.00052658
0.000552443
0.000893774
0.000889679
0.000517609
0.000316183
0.000290956
0.000291967
0.000179833
0.000555682
0.00155219
0.00388975
0.00871173
0.0174071
0.0312685
0.0696564
0.0744438
0.0591099
0.0765046
0.0680723
0.0756736
0.108119
0.0752678
0.0770621
0.10726
0.0774045
0.071307
0.0899076
0.0776776
0.0727644
0.0488456
0.0695748
0.0561616
0.0970102
0.0918488
0.0762001
0.102622
0.0761976
0.0918491
0.0970097
0.0776783
0.0727646
0.0713072
0.0899077
0.0774045
0.107258
0.0770621
0.075268
0.0616985
0.0615075
0.0591097
0.0680725
0.0756736
0.0765047
0.10685
0.0764528
0.0889757
0.0763999
0.106847
0.0764762
0.0751878
0.0681303
0.0614579
0.061458
0.0751881
0.0764765
0.106846
0.0764024
0.0889752
0.0735331
0.0764503
0.106851
0.0582842
0.0611726
0.0845358
0.0548758
0.0612319
0.0582047
0.0588973
0.0603086
0.0596176
0.0603086
0.0449226
0.0480369
0.048037
0.0825659
0.0588969
0.0582038
0.0612319
0.0548774
0.0611735
0.0582837
0.0588451
0.060373
0.0595647
0.0602514
0.0586904
0.0574795
0.060114
0.0541804
0.0613522
0.0811997
0.0536544
0.0465575
0.0366466
0.027432
0.0198817
0.0140378
0.00959878
0.00638236
0.00412737
0.00258807
0.00158393
0.000937933
0.00054314
0.000305445
0.000161485
0.000159667
0.000159122
0.000159099
0.000160947
0.000156511
0.000179003
0.000164836
8.61808e-05
4.15942e-05
6.9689e-05
3.52688e-05
6.85108e-05
0.000179839
0.000555698
0.00155222
0.0038898
0.00871181
0.0174072
0.0312686
0.0696563
0.0744438
0.0456391
0.0475538
0.0667133
0.049647
0.0496467
0.0475539
0.0456391
0.0667134
0.0474634
0.0615068
0.0616988
0.0674197
0.0598878
0.074622
0.0461914
0.0468754
0.0750122
0.0657003
0.0667982
0.0630564
0.0667982
0.074622
0.0488454
0.0511941
0.0695748
0.0555873
0.0555873
0.0511941
0.0753474
0.0486197
0.0490465
0.0490463
0.0659365
0.0486192
0.0750175
0.0799602
0.0792335
0.0776394
0.0832636
0.0799327
0.0852781
0.0955372
0.0587327
0.0427714
0.0705824
0.0601242
0.0545744
0.0647347
0.0566009
0.061046
0.0461086
0.0461082
0.027093
0.0378842
0.0208615
0.0284323
0.0206717
0.0109777
0.0145831
0.00997313
0.00513419
0.00665561
0.00428758
0.00214078
0.00270955
0.00164793
0.000798251
0.000987862
0.000569219
0.000267524
0.000323211
0.000181215
8.34695e-05
9.22449e-05
4.74547e-05
4.93231e-05
4.93229e-05
3.7157e-05
3.12876e-05
3.56084e-05
3.4669e-05
4.2681e-05
3.42693e-05
3.42686e-05
3.50014e-05
4.37156e-05
3.51877e-05
3.51869e-05
3.43967e-05
4.30571e-05
3.7106e-05
3.71065e-05
3.32146e-05
4.21019e-05
3.37971e-05
3.38129e-05
3.69493e-05
4.07729e-05
3.13668e-05
3.75272e-05
3.14105e-05
4.45623e-05
3.13188e-05
3.4845e-05
3.95652e-05
3.17189e-05
4.05258e-05
4.16765e-05
3.36439e-05
3.47568e-05
3.06537e-05
4.39147e-05
3.0577e-05
3.66004e-05
4.06397e-05
3.15694e-05
3.67495e-05
4.22631e-05
7.04111e-05
6.86552e-05
0.000190567
0.000590038
0.00164945
0.00413287
0.00924821
0.018441
0.0329591
0.0331633
0.0449207
0.0440336
0.0445064
0.0447911
0.0355098
0.0261442
0.0192357
0.0133954
0.00927614
0.00608816
0.00398768
0.00246735
0.00153161
0.000893825
0.00052659
0.000291985
0.000174734
0.000279878
0.000301768
0.0003003
0.000528488
0.000576274
0.000528523
0.000901645
0.000906708
0.000862849
0.00150229
0.00153342
0.00158282
0.00239274
0.00157475
0.00153159
0.000946621
0.00150505
0.00151101
0.00160541
0.00244832
0.00245328
0.001514
0.000946187
0.000887046
0.00056325
0.000518887
0.000290372
0.000178881
0.000159096
9.89335e-05
7.81336e-05
7.28274e-05
4.22693e-05
3.13165e-05
4.45618e-05
3.14099e-05
3.75297e-05
3.1363e-05
4.07778e-05
3.69356e-05
3.37608e-05
3.32156e-05
3.2872e-05
4.66825e-05
3.17219e-05
3.04349e-05
3.95663e-05
4.05253e-05
3.48443e-05
3.67516e-05
3.15708e-05
6.86006e-05
3.43969e-05
7.46527e-05
0.0001927
0.000585705
0.00163025
0.00407962
0.00912538
0.0181914
0.0324035
0.0656132
0.0749137
0.0785347
0.0777585
0.0765304
0.0836106
0.0773971
0.108118
0.0830331
0.0598891
0.0461914
0.046875
0.0659364
0.0432607
0.0423762
0.0483399
0.047838
0.0501608
0.0507853
0.0434765
0.0500423
0.0449031
0.0331221
0.0353995
0.0343805
0.0440566
0.0330957
0.0370018
0.0623493
0.0617354
0.0618559
0.0650376
0.0535837
0.0349131
0.0370795
0.0466307
0.0366183
0.0202369
0.0203109
0.0197074
0.00987225
0.00999628
0.0146091
0.0277938
0.0273784
0.0345678
0.0347673
0.0258992
0.0261431
0.0246482
0.0343948
0.0333596
0.0324907
0.0657002
0.075012
0.0474635
0.0761671
0.0788689
0.0750175
0.0776112
0.0561612
0.0643198
0.0623563
0.0599234
0.0622492
0.0494434
0.0333411
0.0191156
0.00967741
0.00436009
0.00176161
0.00064763
0.000224288
8.10202e-05
4.55684e-05
5.4482e-05
5.44819e-05
6.98709e-05
0.000206852
0.000633737
0.00176483
0.00441342
0.00439203
0.00684134
0.0100245
0.0044291
0.00174364
0.00172087
0.00285971
0.0027653
0.00393626
0.00393555
0.00244842
0.00245741
0.00254234
0.00391689
0.00606733
0.00610164
0.00909583
0.0133669
0.0130457
0.0187827
0.0187179
0.0189284
0.0132818
0.0130309
0.0188516
0.0261291
0.0246076
0.0271022
0.0182444
0.00914946
0.00927946
0.00914779
0.00603981
0.00609811
0.00913349
0.0133487
0.00918526
0.0143
0.020357
0.03674
0.0455949
0.0488643
0.0825801
0.0674197
0.0442257
0.0458085
0.0825795
0.0490877
0.0661672
0.0623468
0.0371615
0.037225
0.0289705
0.0275258
0.0204163
0.0100777
0.010071
0.00443958
0.00174349
0.000609979
0.000611057
0.000600658
0.00106663
0.00102459
0.00151402
0.00151104
0.000887075
0.00088971
0.000946638
0.00150509
0.00160547
0.00163086
0.00408767
0.00408882
0.00287188
0.00254163
0.00245338
0.00159084
0.00276387
0.00428768
0.00335577
0.0066557
0.00513436
0.00997353
0.00760022
0.0145833
0.0109781
0.0206723
0.0153111
0.0284324
0.0208622
0.0378849
0.0272464
0.0500323
0.0366711
0.0595701
0.0443042
0.0355609
0.0421862
0.0421861
0.0595701
0.036671
0.0500322
0.0355608
0.0610466
0.0427714
0.056601
0.0514695
0.064735
0.0545745
0.0601244
0.0613525
0.0705826
0.0623561
0.0643215
0.077611
0.0799337
0.079235
0.0832631
0.0776375
0.0830329
0.078867
0.0803766
0.0753479
0.0619504
0.0344508
0.034506
0.032976
0.0270931
0.0367332
0.0273331
0.0199648
0.0140972
0.0140967
0.0075407
0.0096699
0.00521488
0.00645281
0.00333775
0.00417447
0.00217963
0.00263702
0.00132069
0.00161289
0.000815006
0.000969322
0.000470313
0.000562052
0.000274553
0.000326223
0.000153055
0.000179448
8.67133e-05
0.000108238
6.40759e-05
0.000108238
4.74534e-05
9.22442e-05
8.34697e-05
0.000181222
0.000146835
0.00032322
0.000267536
0.000569233
0.000465477
0.000987878
0.000798258
0.00164795
0.00132165
0.00270961
0.00214084
0.00217966
0.00263704
0.00154802
0.00161287
0.000969351
0.000562048
0.000326231
0.000184397
0.000179452
8.6716e-05
0.000108533
0.000355179
0.000274562
0.000389688
0.00111137
0.002899
0.0068041
0.014252
0.0264811
0.042632
0.0426317
0.0599244
0.0535837
0.0349124
0.0264806
0.0367336
0.0210212
0.0273325
0.0151704
0.019965
0.0111142
0.0138253
0.0184911
0.0151707
0.0177078
0.00928116
0.00754074
0.00966982
0.00645302
0.00417446
0.00333778
0.00415434
0.00390245
0.00166296
0.00132071
0.000598622
0.000470319
0.000554793
0.000196678
0.000153054
6.70311e-05
5.27209e-05
3.56082e-05
3.12871e-05
3.63814e-05
3.02016e-05
3.01993e-05
3.63796e-05
3.99611e-05
3.14063e-05
3.14609e-05
4.03403e-05
3.90895e-05
3.01745e-05
3.45886e-05
4.18805e-05
3.06522e-05
4.36758e-05
3.09833e-05
3.67723e-05
3.99329e-05
3.27271e-05
2.76607e-05
3.0129e-05
2.99335e-05
3.14605e-05
3.9664e-05
2.99338e-05
3.99663e-05
3.14651e-05
3.14061e-05
3.08478e-05
3.90898e-05
3.45892e-05
3.01759e-05
3.15412e-05
4.06408e-05
3.66009e-05
3.05733e-05
4.39061e-05
3.0655e-05
3.47564e-05
3.06514e-05
3.01271e-05
3.06255e-05
3.64527e-05
3.08467e-05
6.80929e-05
3.6983e-05
3.43255e-05
3.06532e-05
2.78599e-05
3.13289e-05
3.69824e-05
3.64521e-05
3.46691e-05
6.80939e-05
0.000108534
0.000202215
0.000619355
0.00173011
0.00433711
0.00971202
0.0193717
0.025986
0.0210217
0.0259859
0.0329591
0.0272464
0.046557
0.0331629
0.0345674
0.0246075
0.0258987
0.0187178
0.0187824
0.0130453
0.0133667
0.0133951
0.00912093
0.00906778
0.00926691
0.00913984
0.0131704
0.0187467
0.0191983
0.0184837
0.0260049
0.018456
0.0192356
0.0261442
0.0261427
0.0343948
0.0246484
0.0355093
0.033096
0.0343801
0.0353993
0.0331217
0.0440566
0.0447913
0.0445059
0.0333594
0.0347673
0.0440332
0.0449202
0.0488643
0.0423761
0.0483398
0.0451405
0.0478382
0.0424215
0.0501605
0.0433912
0.0507852
0.0500426
0.0434758
0.0623466
0.061834
0.0457873
0.0423749
0.0443094
0.033456
0.0345775
0.0345777
0.0246624
0.0262207
0.0184837
0.0191985
0.0187469
0.0260049
0.0184563
0.0131706
0.00914003
0.00926705
0.00906792
0.00912119
0.0059367
0.00402476
0.003987
0.00390473
0.00401275
0.00444058
0.00174569
0.00061184
0.000193962
0.000193672
0.000193064
0.000186482
0.00035413
0.000338957
0.000521102
0.0005189
0.000290384
0.000290961
0.000316184
0.000517629
0.000563264
0.000583486
0.000189131
0.000178883
0.00011152
9.8867e-05
7.75794e-05
3.56961e-05
6.54039e-05
5.55462e-05
0.000105685
0.00010373
6.65178e-05
3.11693e-05
3.85105e-05
0.000103997
0.00033919
0.00102504
0.00276821
0.00667126
0.0143588
0.0151254
0.0203174
0.0205571
0.0101642
0.0099529
0.0070376
0.00669666
0.0143914
0.0134372
0.0133782
0.00932928
0.0091397
0.00913973
0.00611217
0.00608357
0.00411779
0.00394024
0.00394023
0.00254929
0.00248424
0.00158288
0.00153348
0.00150232
0.00239286
0.00157481
0.00292752
0.00435578
0.00448958
0.00177441
0.00170179
0.00108834
0.00104306
0.000906697
0.000558132
0.000529175
0.00051793
0.000862889
0.000552469
0.000361138
0.000593536
0.000629447
0.000203055
0.000185118
0.000108917
6.64039e-05
5.66213e-05
6.68848e-05
3.59924e-05
2.44951e-05
2.94271e-05
2.65509e-05
2.95672e-05
2.44756e-05
3.60157e-05
3.33415e-05
4.50902e-05
7.21602e-05
0.00021172
0.000354305
0.000320312
0.000376627
0.000366324
0.000315746
0.000288845
0.000176161
0.00108235
0.000946215
0.000887207
0.000558189
0.00104493
0.000815002
0.00104492
0.00276385
0.00654477
0.00924811
0.0184408
0.0153109
0.027431
0.018532
0.0188511
0.0130306
0.0132813
0.00927922
0.00909565
0.00610149
0.00606715
0.00608795
0.00401263
0.00390469
0.00398691
0.0040246
0.00593654
0.0061125
0.00611215
0.0060835
0.0066967
0.0101756
0.0205333
0.03697
0.0275539
0.0275546
0.0457863
0.0423749
0.0449026
0.0443097
0.0447045
0.0432607
0.0271022
0.0324907
0.0182444
0.0193587
0.0144257
0.0138254
0.0111143
0.00654479
0.00521502
0.00681715
0.0097135
0.00434078
0.0017327
0.000620722
0.000203123
7.5985e-05
7.52068e-05
6.86564e-05
0.000190565
0.000590034
0.00164943
0.00413281
0.00335567
0.00638203
0.00404893
0.00393614
0.00254158
0.00393549
0.00408871
0.00391682
0.0025423
0.00245733
0.00246723
0.00398762
0.00276804
0.0027651
0.00285944
0.0044133
0.00987194
0.0197064
0.0142513
0.00680381
0.00289889
0.00111133
0.0017648
0.000633723
0.000389685
0.000131049
0.000206836
6.98667e-05
5.55506e-05
0.000105678
0.000161483
0.000176158
0.000159663
9.88636e-05
7.79262e-05
3.85104e-05
7.04112e-05
0.000189128
0.000583479
0.00163083
0.00408764
0.00914943
0.0144256
0.00681712
0.00609797
0.00605886
0.0060396
0.00914759
0.00913325
0.00959857
0.0091848
0.0140372
0.00760009
0.0198817
0.014608
0.0277929
0.0366462
0.0466313
0.0536544
0.0442255
0.0601156
0.0541786
0.0811994
0.0650319
0.0618527
0.0574791
0.0586907
0.08258
0.0602511
0.0595671
0.0603742
0.0825795
0.0588454
0.0623487
0.0617342
0.0455958
0.0366162
0.0370786
0.0202362
0.0203108
0.0100237
0.00999557
0.00684074
0.00665523
0.0142994
0.0133483
0.0189282
0.0273778
0.0261289
0.0367391
0.0203564
0.0100705
0.00443934
0.00442872
0.00439173
0.00174347
0.00159078
0.0015839
0.000937902
0.000558174
0.000521089
0.000315736
0.000288838
0.000305433
0.00014683
0.000543127
0.000465466
0.000354108
0.00106655
0.0017208
0.00102452
0.000887176
0.000611017
0.000600645
0.000193062
0.000186465
6.54069e-05
3.56964e-05
7.77545e-05
6.45088e-05
3.99407e-05
3.09808e-05
4.3679e-05
3.0655e-05
4.18817e-05
7.262e-05
7.75802e-05
0.000103727
0.000159121
0.000338931
0.000339162
0.00102495
0.00174339
0.000609943
0.000193659
6.65199e-05
0.000103988
0.000193952
0.000611795
0.0017456
0.00444036
0.0100774
0.0204161
0.0370013
0.045809
0.049088
0.0371607
0.0205564
0.0143915
0.0188752
0.0188751
0.0188032
0.0261103
0.0262203
0.0246627
0.027942
0.027942
0.0447045
0.0424216
0.0148613
0.0130615
0.0148613
0.0130614
0.0134371
0.0133782
0.00701585
0.00701591
0.00295319
0.00295318
0.00287185
0.00108235
0.000366321
0.000355176
0.00011152
6.79412e-05
3.50019e-05
0.000114557
0.000376624
0.00111252
0.00111252
0.00095172
0.00151975
0.00162425
0.00151979
0.000951713
0.00104305
0.00178252
0.00278897
0.00247188
0.00247184
0.00248426
0.00254929
0.002789
0.00450014
0.00448947
0.0101644
0.00703741
0.0151248
0.0143582
0.0275255