/*--------------------------------*- C++ -*----------------------------------*\
| =========                 |                                                 |
| \\      /  F ield         | OpenFOAM: The Open Source CFD Toolbox           |
|  \\    /   O peration     | Version:  2306                                  |
|   \\  /    A nd           | Website:  www.openfoam.com                      |
|    \\/     M anipulation  |                                                 |
\*---------------------------------------------------------------------------*/
FoamFile
{
    version     2.0;
    format      ascii;
    arch        "LSB;label=32;scalar=64";
    class       volScalarField;
    location    "0.7";
    object      gradTy;
}
// * * * * * * * * * * * * * * * * * * * * * * * * * * * * * * * * * * * * * //

dimensions      [0 -1 0 1 0 0 0];

internalField   nonuniform List<scalar> 
2658
(
0.00803157
0.00474787
0.0014202
-3.34889e-05
-0.012728
0.015447
-0.0114611
0.00967812
8.58105e-05
-0.0110273
0.00315338
-0.0308113
0.0199418
0.0202292
0.0166252
0.0169531
0.018384
0.0167219
0.0170056
0.0199851
0.019363
0.0171577
0.00581464
-0.00337278
0.00583196
0.0183502
-0.00382844
0.00119475
0.0149609
-7.76119e-07
-0.0149611
0.0038285
-0.0183513
-0.00581476
-0.00583186
0.00337312
-0.000343466
0.00160465
-0.0171629
-0.0193641
-0.0199865
-0.0170063
-0.0167207
0.00797869
-0.000457182
9.0146e-05
-0.00315358
0.00831946
-0.0169561
-0.0166254
-0.0202279
-0.019942
-0.0179946
0.00357752
-0.00674419
-0.00591587
0.000464576
-0.00864754
-9.66909e-08
4.16136e-05
-0.000464252
0.00591579
0.00674468
-0.00357794
0.00305575
-0.00886404
-0.0114003
-0.000632575
-0.0171265
0.0171266
1.39385e-07
0.0125411
-0.000220805
0.00883153
4.95991e-05
-0.00676401
-0.00665225
0.000415633
0.00536734
0.0034747
-0.00448279
-0.000755871
0.00665027
0.0101037
-0.000115494
-5.09057e-05
3.75663e-05
3.90726e-05
2.25703e-05
1.05423e-05
4.35239e-06
-2.07452e-06
7.91845e-07
5.93955e-06
-1.97658e-06
-9.45373e-06
-4.99833e-07
-5.90076e-06
-6.44861e-07
-1.78843e-06
-6.27779e-06
-1.34768e-06
-8.37214e-06
-2.78586e-06
-2.66866e-06
6.11031e-06
-2.15149e-06
-1.06667e-06
1.06286e-06
-5.97624e-06
1.93044e-06
-2.52012e-06
1.63798e-10
2.52065e-06
-1.9314e-06
5.97645e-06
2.66814e-06
-6.11262e-06
8.37057e-06
2.78455e-06
1.34384e-06
6.27757e-06
1.78795e-06
6.43662e-07
-4.93805e-06
-4.70388e-06
-5.94133e-06
9.45522e-06
5.0162e-07
1.97748e-06
6.27716e-06
1.19643e-06
2.8877e-06
3.15856e-06
5.79193e-06
-2.93442e-06
7.22211e-07
1.02167e-06
-7.96688e-06
7.97045e-06
-7.21394e-07
2.93529e-06
-1.51169e-06
-1.51695e-06
-1.4157e-08
1.51331e-06
3.85034e-09
5.15965e-09
-3.23442e-06
3.1859e-06
1.06729e-08
2.86725e-07
1.98898e-06
-2.32554e-06
8.56022e-06
1.82779e-06
8.1926e-06
9.91161e-06
1.07127e-05
8.04422e-06
8.11748e-06
9.89818e-06
8.20047e-06
7.99765e-06
1.07922e-05
9.94895e-06
8.40125e-06
2.58382e-06
1.07527e-06
6.03191e-06
-3.31837e-05
6.79411e-05
-0.000112507
0.00020462
-0.000341861
0.000557675
-0.000919171
0.00136382
-0.00219449
0.00297552
-0.00466912
0.00577937
-0.00892895
0.009942
0.00985941
0.00830066
0.00789799
0.0110278
0.0127276
3.33595e-05
-0.0154474
0.0114003
0.00886341
-0.00305578
0.0308109
-0.00400621
0.000115281
5.07669e-05
-3.75949e-05
-3.91097e-05
-2.25973e-05
-1.05399e-05
-4.35293e-06
2.07468e-06
-7.91851e-07
-2.31936e-07
-3.07662e-06
2.18856e-06
-3.73649e-06
3.7361e-06
3.07796e-06
2.30727e-07
-2.19025e-06
-8.90324e-07
4.70339e-06
4.93708e-06
-9.53976e-06
5.58375e-06
1.09768e-06
2.19596e-07
-9.83764e-07
6.54267e-07
2.97319e-07
8.06676e-07
-2.84965e-11
-8.07862e-07
-1.10063e-06
2.15084e-06
-4.83213e-06
1.06868e-06
-4.98316e-06
4.98663e-06
4.83394e-06
1.06584e-09
-3.27032e-06
-3.81442e-06
3.81709e-06
-2.1424e-06
3.27351e-06
-5.81792e-07
7.31252e-10
-1.98045e-06
-9.45933e-07
2.98803e-06
-6.60647e-07
6.87472e-10
6.0915e-10
-2.05998e-10
-6.72306e-06
4.32366e-06
9.82215e-06
-2.59133e-06
7.56243e-06
-1.259e-05
2.59231e-05
-3.96845e-05
3.96814e-05
5.71634e-06
6.92749e-05
2.21804e-06
-0.000132098
0.000217616
-1.85743e-06
-0.000379197
0.000611876
-1.5545e-05
-0.000982392
0.00153261
-5.77347e-05
-0.00227873
0.0034162
-0.000196198
-0.00470546
0.00678707
-0.000655559
-0.00861894
0.0120129
-0.00224364
-0.0150746
-0.0074063
-0.0170115
0.0170117
-0.00119422
-0.0051344
0.00904397
0.00806051
-2.00439e-07
-0.00559221
0.00559207
0.00592843
-1.41579e-07
-0.00708716
0.00708703
0.00294409
-8.50385e-08
-0.0189624
0.0189622
-0.0124401
2.25791e-07
0.01244
-0.0097435
0.00617531
0.0142363
0.0101537
0.0120754
-0.0188604
0.0129213
0.00161447
0.00108962
6.79432e-05
-0.00294432
-0.00107616
-0.00323578
-0.0107953
0.00638968
0.0174619
0.00760266
0.00815599
-0.00439466
9.80897e-08
0.00439488
0.0032358
-0.0129215
0.0188603
-0.0142375
-0.00617602
0.00974349
-0.00161476
-0.00108963
-0.008155
-0.00760323
-0.0174617
-0.00638991
0.0107952
-0.00998657
-0.00450149
-0.0161236
-0.00404936
0.0101297
0.00247197
-0.00217266
0.0109769
-0.00238032
-0.00298452
-0.000324799
-0.000280635
-0.000216883
-0.000124853
-5.94538e-05
-2.4767e-05
-9.42259e-06
-7.57413e-06
-3.02325e-05
-2.56178e-05
-2.26319e-05
-3.68585e-05
7.8241e-05
-0.000127194
0.000236795
-0.000386624
0.000645714
-0.00104316
0.00157783
-0.00250723
0.00343737
-0.00536735
0.00665259
-0.0101039
-8.62551e-05
-0.00967778
0.0114619
-0.0125414
0.0099124
-6.29543e-08
-0.00991238
0.00695153
-0.0063036
0.00510422
-0.00340062
0.00448091
7.86926e-05
0.00239342
0.000284615
-0.0034371
-0.000441216
-0.00229087
-0.00261217
0.000296805
0.00185615
0.00202931
-0.00292059
-0.000471142
0.00397072
0.000409013
-0.00501485
0.0073975
1.75926e-06
-0.00789793
-0.000660088
-9.00998e-05
-0.00831957
0.00998638
-0.0109772
0.00217234
0.000638206
-0.000247008
-8.52372e-08
-0.00012189
-0.000153134
-0.000145621
-9.05469e-05
-4.47353e-05
-1.90217e-05
-7.1742e-06
-2.97996e-07
-6.54567e-07
9.82108e-07
2.14161e-06
-2.20003e-07
-5.58585e-06
9.53889e-06
-3.28245e-06
9.54756e-06
6.65441e-06
6.17061e-06
1.05806e-05
8.33415e-06
-2.32162e-06
-2.10086e-05
5.44111e-05
-1.34343e-06
-9.44068e-05
7.50435e-05
-3.87449e-05
-7.87641e-06
-1.40571e-05
3.23208e-06
3.2166e-06
3.19144e-06
2.18769e-06
3.82693e-06
-3.92344e-06
-2.47173e-06
5.34541e-06
-1.38885e-05
-5.36035e-05
-2.03016e-05
-1.66639e-05
-4.97533e-05
-6.67245e-05
1.57924e-05
8.47336e-06
1.37213e-05
6.84536e-05
6.01093e-05
-9.08087e-05
-7.81132e-05
1.80121e-05
5.47995e-05
-8.55325e-06
-1.24015e-05
-5.17339e-05
-0.000153281
-0.000154873
-0.00038528
-0.000176156
-0.000126169
-0.000277182
-0.000417155
2.81949e-05
2.53211e-05
6.05448e-05
0.000546323
0.000495259
-0.000768594
-0.000660118
0.000111888
0.000434124
-0.000241355
4.74633e-05
0.000161606
-2.58581e-05
0.000182229
-0.000281854
5.02567e-05
0.000202175
-0.000103464
1.91198e-05
3.56781e-06
-8.02691e-06
-6.92639e-05
1.55712e-06
4.19123e-05
-2.99856e-06
-2.04976e-05
-4.15837e-06
-2.51811e-06
-1.88478e-06
1.96246e-06
7.61176e-06
7.69469e-06
7.33723e-06
-3.50044e-06
5.06266e-06
2.25033e-06
1.15232e-06
-3.9419e-06
-3.70749e-06
7.93362e-06
1.26792e-05
-5.41868e-05
-0.000157149
-0.000393197
-0.000387849
-0.000881811
-0.000858751
-0.00178287
-0.000961856
-0.000542936
-0.00120468
-0.00247946
-0.000173781
-7.9306e-06
0.000154926
0.00292055
0.00261242
-0.0039705
-0.00347412
0.000441222
0.00229092
-0.00160433
0.000234771
0.00105251
-0.000153671
0.00120494
-0.001856
0.000250111
0.00133306
-0.000843595
0.00011874
2.18703e-05
9.27315e-06
-2.21105e-05
-0.000217584
3.102e-06
0.000132092
-2.21792e-06
-3.19239e-06
-0.00012932
0.00024673
-0.00037966
0.000379674
8.21615e-06
-0.00067029
1.86231e-05
0.000999485
7.22249e-06
-0.00163633
4.02344e-05
0.00234589
-2.11732e-05
-0.00355771
6.56277e-05
0.00489286
-0.000194673
-0.00683166
3.0848e-05
0.00905015
-0.00108654
-0.0112403
-0.000973803
0.0141034
-2.53932e-07
-0.0141033
0.00740499
0.0150752
0.00224257
-0.0120124
-0.000127332
0.00861861
0.000655068
-0.00678671
-1.31254e-05
0.00470598
0.000195856
-0.00341579
1.99672e-06
0.00227899
5.7475e-05
-0.00153253
5.48099e-06
0.000982428
1.54751e-05
-0.000611822
4.85469e-06
0.000379209
1.86545e-06
-7.60068e-06
-3.66841e-05
-1.28841e-05
-3.17543e-06
2.75349e-06
-2.3375e-09
-3.0227e-10
-1.73286e-08
1.4651e-09
2.94931e-08
1.08582e-07
3.21923e-07
1.63408e-06
4.12562e-07
-2.28165e-07
-9.07083e-07
0.00501424
-0.00501494
-0.00692998
-0.0069924
-0.00157654
-0.00376856
-0.0118426
0.0314415
-0.00192361
0.000744434
1.16883e-05
-0.000367683
0.000973798
0.0112409
0.00108586
-0.00904981
-9.87712e-08
-9.87345e-08
-1.02594e-07
0.000194559
-0.00489279
0.00683166
-3.08964e-05
-0.000273987
-0.000190252
-6.57522e-05
0.00355776
2.10705e-05
-0.00234592
3.54784e-08
3.45412e-09
-1.44603e-08
-1.36771e-08
-8.26686e-06
0.000670291
-0.000999463
0.00163642
-4.01921e-05
-0.000109295
-5.29706e-05
-1.16008e-08
-4.22656e-09
-1.17131e-10
-9.32043e-10
-5.72057e-06
8.28794e-05
-1.29018e-09
-8.28836e-05
3.19248e-06
0.000129325
6.47251e-06
-0.000246746
7.5936e-06
2.20995e-05
1.20279e-09
-6.492e-06
6.88894e-10
8.02386e-06
1.88395e-06
2.04991e-05
2.996e-06
-4.19131e-05
2.51737e-06
-2.59234e-05
6.7245e-06
1.25901e-05
6.71584e-10
-7.56186e-06
2.59373e-06
-9.82097e-06
-2.58483e-06
-4.32414e-06
-2.61455e-07
-1.77965e-06
-1.18393e-06
6.6018e-07
1.97989e-06
-2.98974e-06
9.45812e-07
-3.10629e-06
1.9944e-06
5.90985e-10
-1.9951e-06
-1.04538e-06
5.9003e-06
3.10576e-06
5.82498e-07
1.18494e-06
-1.06354e-06
1.78192e-06
2.6141e-07
5.92076e-07
-1.90189e-06
-9.05394e-07
3.12367e-06
2.97437e-06
-4.99373e-07
9.08064e-07
5.39004e-06
-6.01755e-06
8.30195e-06
6.25108e-07
3.90424e-10
1.44311e-09
4.17833e-10
-1.85869e-10
1.02553e-09
-1.03001e-09
6.09568e-11
3.22191e-10
-1.09769e-08
-5.27569e-09
3.8247e-08
4.55647e-08
-7.68182e-08
-1.3558e-07
4.34812e-09
-4.78759e-07
-0.00904456
0.00513461
-0.00447642
0.00739946
-0.00739971
0.0044761
-0.0146253
0.00151133
-0.0058608
0.0130361
0.003323
-0.000250594
0.0120916
-0.00998095
-0.0068837
-0.0173296
-0.00588901
-0.00853996
-0.011325
-0.00686362
0.000807682
0.00617314
0.00192313
-1.70331e-06
2.50652e-07
-0.00192245
0.0146248
0.0058604
-0.00151176
0.00430318
-0.00332335
-0.0120921
0.000250206
0.00134206
-0.00247223
-0.0101299
0.00404861
0.0161228
0.00450143
0.007187
-0.00602701
-0.0061747
7.89807e-07
-0.0020548
-0.00430341
0.000459501
-0.000328333
-0.0069866
0.00602681
0.00134377
-0.00718702
-1.68264e-06
-6.82067e-05
0.00107589
-0.000638268
0.000246847
0.000659993
-0.00125307
-0.0040032
-0.00186886
0.000176059
0.0057472
0.00501562
-0.00739758
-0.00664958
0.000755963
0.00448276
-0.000409115
0.000115041
-0.0018731
-0.000888029
0.000124852
9.226e-05
5.36235e-05
2.7278e-05
3.01783e-05
-0.000312925
-5.81872e-05
1.34413e-05
0.000229098
-8.27463e-06
-0.000292803
0.000501028
-2.26099e-05
-0.000812492
0.000627393
-0.00037407
-6.19066e-05
-0.00100128
-4.8976e-05
-0.00201878
0.00154245
-0.000143445
-0.00239323
-7.87389e-05
-0.00448084
0.00340036
-0.000284683
-0.00510405
-4.92547e-05
-0.00883192
0.00676344
-0.000416121
-0.000469445
-0.00394107
-0.0120757
-0.0120893
-0.018389
-0.0012148
0.0285466
-0.0023576
-0.00263836
-0.00142007
-0.000587645
-0.00028202
-0.000127289
-5.17411e-05
-1.78422e-05
-2.08477e-05
1.51526e-05
7.37575e-06
0.00032902
1.02516e-08
-0.00032905
0.000550859
-3.45511e-09
-0.000911217
0.000911182
-0.000550859
-8.62783e-09
-3.66393e-09
-1.46141e-10
2.17771e-06
7.2153e-06
1.99604e-07
2.09243e-05
5.62745e-09
-2.0928e-05
5.7996e-05
3.55562e-09
-0.000106241
0.000106229
-5.79894e-05
2.23915e-06
4.70481e-06
-3.62486e-06
3.62656e-06
-1.54762e-06
-6.88024e-07
-4.70728e-06
2.10111e-05
2.32507e-06
-8.33726e-06
3.87566e-05
1.34371e-06
-7.50582e-05
9.44102e-05
-5.44072e-05
-1.99808e-07
-2.1777e-06
-1.96301e-06
9.42192e-06
-1.55201e-06
3.31873e-05
7.57894e-06
-6.84503e-05
-1.91154e-05
9.08146e-05
2.58583e-05
-0.000161599
-4.74689e-05
0.000241458
0.000386617
6.19333e-05
-0.000627437
0.000812427
2.26415e-05
0.000374154
-0.000229131
0.000292808
8.27507e-06
0.000124951
2.40071e-05
-0.000236773
0.000127198
7.81414e-05
-5.4807e-05
-1.80095e-05
-7.8231e-05
7.8747e-06
3.68581e-05
2.2637e-05
8.55155e-06
-6.01063e-05
2.56195e-05
3.02382e-05
-9.54884e-06
-7.60951e-06
-6.65195e-06
2.3155e-05
-6.17101e-06
-7.21522e-06
-1.05785e-05
2.32551e-05
-8.04431e-06
-8.11824e-06
3.50326e-06
-7.33702e-06
-7.69497e-06
-5.3448e-06
-3.82736e-06
-2.75375e-06
3.17399e-06
1.28927e-05
3.92622e-06
1.66883e-05
3.66706e-05
9.04391e-05
4.9812e-05
0.000126275
0.000191434
-0.000191604
-9.0449e-05
-1.86276e-05
-0.000331022
0.000330654
0.000277285
0.000543224
0.000430038
-0.000430736
-0.000514508
0.000515015
0.00120631
0.006931
0.0069934
0.00157955
-0.0099419
-4.74221e-05
-0.00985926
-0.00074458
0.000457015
-0.0285468
0.00238014
0.00298423
0.000324445
0.000280445
0.000216707
0.0001248
5.94276e-05
2.47651e-05
-3.09454e-06
0.000112527
2.29715e-05
-0.000202171
-5.02701e-05
0.000281861
6.70671e-05
-0.000434106
-0.000111788
0.000660337
0.00104322
0.000143379
-0.00154262
0.00201873
4.90265e-05
0.00100142
-0.00130438
-1.88327e-05
0.00143824
-1.7775e-08
-0.00226061
0.00226054
-0.00143828
1.87987e-05
0.00130449
3.58858e-05
1.75698e-08
1.90844e-08
4.95267e-09
1.04903e-08
-2.24313e-06
-1.15615e-06
-8.5712e-06
2.34468e-06
1.10767e-06
-5.79478e-06
-3.16097e-06
-2.88967e-06
-8.3039e-06
-1.19523e-06
-6.27592e-06
-1.07079e-05
-9.90925e-06
-6.29749e-07
-8.19506e-06
-1.82847e-06
-2.24939e-06
-3.22845e-06
-3.21529e-06
-3.1896e-06
-1.07907e-05
-7.99784e-06
3.2818e-06
-8.20045e-06
-9.9031e-06
2.33777e-05
-6.03371e-06
4.15861e-06
-1.07863e-06
-9.94981e-06
-8.4054e-06
-2.18146e-06
1.38977e-05
2.461e-06
-8.45752e-06
-6.79331e-05
-1.3716e-05
0.000103493
5.36116e-05
2.04781e-05
-1.57356e-05
-0.000204606
0.000341929
5.82228e-05
-0.000546292
-0.000118723
0.000843752
0.000768609
0.000153652
-0.00105262
-0.000234794
0.00160473
0.00250714
-0.00157767
-9.22071e-05
-0.000106929
-0.00133289
-0.00024997
-0.0012048
9.05111e-05
4.47123e-05
1.90121e-05
7.17295e-06
-3.56862e-06
-9.27417e-06
-2.18712e-05
5.29508e-05
0.000109244
-4.70066e-05
4.69478e-05
9.13178e-05
0.000470993
-0.00436618
-0.000322438
0.000155117
0.000798715
-0.00841857
4.70381e-05
0.000226872
0.000123522
6.33646e-05
2.94168e-05
1.23424e-05
4.67497e-06
2.48186e-06
0.000172879
-0.000189036
0.000189049
-0.000172863
-2.49158e-06
-4.67343e-06
-1.23471e-05
-7.38527e-06
-0.000501004
-1.51668e-05
-5.78553e-06
3.95813e-06
1.78673e-05
5.17722e-05
-3.58807e-05
-1.82677e-05
-1.34093e-05
-2.72743e-05
-3.0162e-05
0.000312977
0.000154956
6.72856e-05
-2.51386e-05
-0.000557627
0.000919317
0.000130559
-0.00136376
0.00219482
0.000245654
-0.00297526
0.00466929
0.000322224
-0.00574763
-0.000799095
0.00841899
0.00892937
0.000127269
-0.005779
1.32786e-05
0.000174063
8.78492e-06
-2.77734e-05
0.000177282
0.000385445
0.000859144
0.000420019
0.0017829
0.000968295
0.00376915
0.00247593
0.0118423
-0.0314414
0.000343054
-0.00160327
0.0113242
0.00588837
0.0173298
0.00688372
0.00998074
-0.00797858
0.00192395
0.00121443
-0.00830041
0.000121642
0.000152988
0.000145528
-5.28515e-08
-7.84443e-08
-0.000155213
0.000273886
0.000190151
-9.13417e-05
-0.000123649
-2.08158e-08
-1.77452e-08
-6.3387e-05
-2.94457e-05
-4.31669e-05
-0.00303869
0.00335575
-2.92546e-08
-0.00501741
0.00501729
-0.00335585
4.31516e-05
0.00303892
7.55017e-05
6.2123e-06
-0.000172516
1.83259e-05
-6.56403e-05
-8.93727e-05
-0.000418133
0.000140928
0.00630363
-0.00695138
9.52404e-05
-6.70687e-08
-4.95688e-08
-6.38722e-08
-1.12707e-07
-0.00592895
0.000966976
-1.18798e-05
0.000367366
-0.000459388
-0.00806153
0.00205478
0.000327718
0.00698616
0.00686278
-0.0130357
0.00853911
-0.000807977
-0.00134445
-3.43745e-07
0.00400604
0.00864745
-0.000266235
6.17254e-07
0.000245032
0.000220803
0.000266465
-0.00474815
-0.00803237
-0.00775462
6.44139e-08
-4.15037e-05
8.46213e-07
0.000632424
4.35286e-07
7.77676e-08
7.51471e-09
-7.55174e-05
0.000127415
0.0002821
-0.000140998
-9.54498e-05
8.94635e-05
-6.1259e-06
0.000393364
0.00015719
5.42244e-05
1.4062e-05
1.24092e-05
5.17508e-05
0.000153323
-6.04825e-05
-0.00049522
0.000387918
0.000881992
-0.000154688
0.00436682
-0.00017532
-0.000114802
-0.000124544
0.000888463
0.0018741
0.00186942
0.00400421
0.0120891
0.00125298
0.00394085
0.0120752
0.00235688
0.000469429
-0.000245379
0.000587377
0.00101403
0.00263873
0.000419003
-5.36246e-05
-0.000645587
-1.26785e-05
-7.93173e-06
-5.06477e-06
3.71705e-06
2.08764e-05
6.58632e-05
0.000172623
-0.000226939
-0.00101273
-1.91142e-06
-5.46078e-06
-4.84044e-06
-0.000182215
5.78092e-06
-0.000124919
-2.40066e-05
9.04615e-07
1.90171e-06
-5.92189e-07
-9.07774e-07
-4.93954e-10
4.9992e-07
-2.97424e-06
-3.12397e-06
1.04599e-06
6.01838e-06
-5.39132e-06
-1.02484e-06
-1.98879e-06
1.54326e-06
6.88703e-07
1.5167e-06
-1.10257e-06
0.000107058
-0.00202873
-0.000245749
-1.79495e-06
-0.00134238
-0.000967252
1.84652e-06
8.89248e-07
-2.74216e-10
-7.35345e-06
2.3589e-09
9.51961e-09
4.07428e-08
-0.000130575
-0.00029669
-2.29659e-05
-6.70611e-05
-2.33772e-05
-2.31531e-05
-2.32523e-05
-0.0120749
-0.0101537
0.0018919
-1.55767e-07
-0.00189194
0.017995
0.00775384
-2.25391e-06
-1.15191e-06
3.94742e-06
1.33913e-06
3.87383e-05
-5.44091e-05
9.44025e-05
-7.50478e-05
7.87528e-06
3.68502e-05
-1.05826e-05
2.32469e-05
-9.91229e-06
-1.07174e-05
-8.0479e-06
-8.12042e-06
-9.90223e-06
-8.2027e-06
-8.0002e-06
-1.07958e-05
-9.95158e-06
-8.41093e-06
-2.58773e-06
4.15716e-06
-4.32646e-06
-9.82315e-06
2.58935e-06
-2.60502e-07
-7.56206e-06
6.88248e-11
7.56128e-06
-2.59189e-06
9.8219e-06
2.58682e-06
4.32576e-06
-4.15774e-06
6.03353e-06
1.08053e-06
8.41699e-06
9.95266e-06
1.07941e-05
8.00028e-06
8.20375e-06
-3.27822e-06
6.65491e-06
6.17152e-06
1.05797e-05
-3.49934e-06
8.123e-06
8.0473e-06
1.07154e-05
9.91313e-06
8.20307e-06
6.34105e-07
1.8333e-06
6.90674e-07
4.70975e-06
2.09312e-05
-4.05728e-09
3.62339e-06
-4.70637e-06
-6.90497e-07
-1.83191e-06
-6.30217e-07
-8.33872e-06
2.31876e-06
2.10041e-05
-1.99458e-07
5.79877e-05
-5.79936e-05
-7.45356e-09
-0.000106231
-2.48653e-06
-0.000172857
8.27069e-06
0.000124917
0.000127173
2.40055e-05
-0.000236781
-0.000161612
7.81165e-05
-1.80179e-05
-5.4804e-05
-7.82404e-05
4.35235e-06
1.05432e-05
2.25841e-05
3.90721e-05
3.77107e-05
-5.0678e-05
-0.000115189
0.00400629
-0.0032356
-0.0107953
0.00638985
0.00998654
0.0045015
0.0161228
0.00404888
0.00688395
0.0173304
0.00588891
0.0113244
0.00853949
0.0058602
-0.0130364
0.00430313
-0.000459716
-0.00151166
0.0146251
-0.00447563
0.00739959
-1.89529e-08
-0.00740014
0.00447597
-0.0146245
-0.00585999
0.0130366
-0.0113238
-0.00853909
-0.00588855
-0.0173299
-0.00688334
-0.00404873
0.0101303
0.0109769
0.0107954
-0.00998628
-0.0045013
-0.00639002
-0.0174619
-0.00760336
-0.0101537
-0.0142376
-0.00617558
0.00974359
-0.0124401
-0.00161452
0.0189624
-0.0189623
0.0124402
-0.00974365
0.00617503
0.0142365
0.0101538
0.0120756
0.00760298
0.0174611
0.0202284
0.0199417
-0.00357804
0.0179948
0.00674458
0.00775365
0.00591562
4.18788e-05
1.13756e-06
-4.14089e-05
-1.16787e-07
0.00864773
-0.00864754
0.000464409
-0.00591571
-0.00775374
-0.00674498
-0.0179951
-0.0199423
-0.0202278
-0.0166251
-0.0169528
-0.0183836
-0.0167217
-0.0170055
-0.019986
-0.0193626
-0.0171593
-0.00581327
0.0016044
-0.000343049
0.00994217
-0.00892997
0.00577885
-0.00466924
0.00297561
-0.00219473
0.00136378
-0.000919307
0.000557694
-0.000341884
0.000204622
-0.000112522
6.79346e-05
-3.31862e-05
-3.02328e-05
-2.56164e-05
-2.2633e-05
-3.6854e-05
-3.87482e-05
-1.34437e-06
5.44114e-05
-2.10068e-05
-2.32193e-06
8.33992e-06
-2.32478e-05
2.07604e-06
-4.35065e-06
-1.0539e-05
-2.2566e-05
-3.90657e-05
-3.75544e-05
5.06976e-05
0.000115186
-0.00400626
0.00323555
0.0010761
0.00294411
-0.000638299
0.00708713
-0.00708701
-0.00294406
-0.001076
0.000638412
0.00217254
-0.0109772
-0.0101299
0.00998068
-0.0120919
-0.00332319
0.000250399
0.00134221
-0.002472
0.00238031
0.00298441
2.4775e-08
-0.00298418
0.00332328
-0.00430299
0.0080609
0.000459297
0.00904403
-0.00904446
-0.00806126
-1.64302e-07
0.00559226
0.00592855
-0.00592879
0.000966998
-0.00559222
0.000327771
3.22672e-07
0.00617333
0.000807863
-0.00686259
0.00192329
-3.81726e-07
-5.39349e-07
-2.85684e-10
0.00740579
-0.00583196
-0.0183503
0.00382825
-0.0149618
0.0170112
-0.0141029
0.0112403
-0.0112406
-0.00108618
-0.00861842
-0.000655035
0.00678654
-0.00470591
-0.000195657
0.00341578
-0.002279
-5.73551e-05
0.00153245
-0.000982463
-1.54186e-05
0.000611818
-0.000379215
-1.84625e-06
0.000217588
-0.000132094
2.22223e-06
6.92681e-05
-4.19165e-05
2.99515e-06
2.04949e-05
6.72055e-06
1.25855e-05
-1.25879e-05
2.60332e-07
1.78064e-06
-4.98277e-06
-4.82997e-06
1.73533e-09
3.27184e-06
-3.27016e-06
-3.81463e-06
1.5365e-09
3.73719e-06
-3.73664e-06
-3.07704e-06
6.29857e-10
7.96565e-06
-7.9686e-06
7.22915e-07
-2.08853e-09
-1.51336e-06
1.51795e-06
-1.10749e-06
5.79591e-06
3.16199e-06
2.89337e-06
1.20075e-06
6.28148e-06
1.9809e-06
-5.9388e-06
-7.91524e-07
5.39244e-06
-6.017e-06
8.30817e-06
2.97487e-06
3.1257e-06
5.05354e-07
5.90668e-06
6.48667e-07
-4.93594e-06
-6.54566e-07
8.91061e-07
-4.70314e-06
9.45572e-06
-2.96488e-07
-8.05949e-07
-9.42188e-06
-2.47672e-05
-5.94436e-05
-0.00012482
-0.000216776
-0.000280511
-0.000324466
4.76387e-05
0.00985847
0.00830131
0.00789758
0.0110282
-0.010104
0.00665285
-0.00536751
0.00343747
-0.00250725
0.00157782
-0.00104331
0.000645659
-0.000386636
0.000236783
-0.000127198
7.82376e-05
-7.8751e-06
7.50535e-05
-9.4409e-05
0.000106242
-0.000189037
3.89142e-10
0.000189024
-0.00032904
0.000292789
-0.00022913
0.000374097
-0.000501006
2.26086e-05
-0.000627461
6.1948e-05
0.000386572
-4.74603e-05
0.000241388
0.000281793
6.70748e-05
-0.000495241
-0.000546314
0.000312904
-5.0272e-05
-0.000182224
2.58586e-05
9.07912e-05
-6.01106e-05
8.55314e-06
2.26302e-05
-7.21767e-06
-6.17208e-06
3.49845e-06
-9.45802e-06
-1.97997e-06
-6.28061e-06
-1.19926e-06
-2.89261e-06
-3.16163e-06
-5.79555e-06
1.10286e-06
-1.51809e-06
-7.22298e-07
2.93311e-06
-1.02508e-06
-5.39147e-06
2.28343e-07
7.93214e-07
6.01625e-06
5.93898e-06
4.70183e-06
-8.92238e-07
-2.19224e-06
3.07823e-06
2.72431e-10
-1.90788e-10
1.5904e-09
8.65943e-09
1.96264e-08
3.38216e-08
6.74276e-08
4.33964e-08
3.90969e-08
-3.86649e-08
2.3389e-07
0.00439459
-1.65562e-06
-0.00718668
0.00134435
-0.0161224
-0.00698595
0.0120916
-0.000250357
-0.00134208
-0.000967135
1.17903e-05
0.000744646
-0.000457196
9.04775e-05
-0.00315363
-0.00305581
0.00886344
0.0114005
-0.0154472
3.33824e-05
0.0114617
-0.00967747
0.0127276
-8.62041e-05
-0.00394051
-0.0120761
-0.0120884
-0.011841
-0.00699425
-0.0069301
-0.00120633
-0.00247746
-0.00157917
-0.00376952
-0.00178237
-0.000967963
-0.000543183
-0.000277422
-0.000419576
-8.667e-06
-0.000174158
0.000175765
-0.0084186
-0.00739776
0.00501535
0.00448235
0.00075607
-0.00664945
-2.57606e-06
-0.000121746
-0.00238019
0.00247225
-0.00217249
-6.808e-05
0.00602713
-0.000328167
-0.00205494
0.00151188
-0.00513454
-0.00119456
-0.0050143
2.37445e-08
2.5901e-07
4.61235e-07
3.35193e-07
-4.28142e-08
-6.27161e-08
-3.95443e-08
-4.51717e-08
-1.85029e-08
-5.86987e-10
4.48005e-11
-2.75481e-06
2.75409e-06
3.82644e-06
-3.93234e-06
-1.66854e-05
-4.98153e-05
-0.000126298
-0.000177205
2.77989e-05
-0.000858707
-0.000385312
-0.000154903
-6.71813e-05
2.51664e-05
6.0563e-05
-0.00084372
-0.000768676
0.000495218
0.00043407
0.000111833
-0.000660217
0.00105241
0.000234767
-0.00160445
0.00229072
0.000441219
-0.00347406
-0.000409299
-0.00397086
0.00261243
0.000471076
-0.00436622
0.00574698
0.000798796
0.000155152
-0.000153007
-0.000145581
-0.000296858
-0.00185616
0.00120486
0.000249982
-0.00202895
0.00292065
-0.000245819
0.000155022
-0.0018687
-0.00400343
-0.00121391
-0.00192331
0.00797911
-0.00998045
0.0314414
-0.0012532
0.00831968
-0.00235697
-0.00803174
-0.00474819
-0.00142037
-0.00263873
-0.00046901
0.00011525
-0.00187311
-0.000887939
-0.000881587
-0.000387683
-0.000153249
-5.17287e-05
-5.35904e-05
-2.04449e-05
1.57328e-05
3.01827e-05
-0.00031294
-0.000281858
0.000182233
0.000161593
4.7458e-05
-0.000241396
-6.70782e-05
-4.47237e-05
-9.05011e-05
-0.000153731
2.18755e-05
0.000118721
0.00054626
-5.82258e-05
-5.29512e-05
0.000982414
5.37546e-06
-0.00153267
5.75608e-05
0.00227894
1.98595e-06
-0.00341614
0.000196117
0.00470568
-1.3208e-05
-0.00678687
0.000655255
0.00861839
-0.000127523
-0.0120127
0.00224346
0.0150746
0.00337309
0.000973617
-0.000367529
0.000367539
-0.015075
-0.00224285
0.0120124
-0.000973811
0.014103
-0.00740562
-0.0170115
-9.95351e-08
0.014961
-0.00382823
0.0183514
0.00581372
0.005832
0.00119447
0.00513486
0.00205474
-0.00192342
-0.00617363
0.00686338
-0.000807901
0.00698615
-0.00602678
-3.5547e-07
5.23064e-08
1.86483e-09
-5.42992e-09
2.54169e-08
4.26281e-08
0.00108668
-0.00904966
0.00683133
-0.00489289
0.00355789
-0.00355806
-2.11385e-05
0.00234598
4.02893e-05
-0.0016363
7.28925e-06
0.000999459
1.86753e-05
-0.000670299
8.2542e-06
0.000379673
7.60404e-06
-0.000246734
6.48836e-06
0.00012932
3.19184e-06
-8.2887e-05
5.71934e-06
3.96799e-05
2.51539e-06
-2.59272e-05
-1.6095e-09
2.59236e-05
-6.72031e-06
-2.04967e-05
-2.99688e-06
4.19131e-05
1.55373e-06
-6.92729e-05
-2.21898e-06
0.000132095
3.09426e-06
-0.000217612
1.85531e-06
0.000379198
4.83328e-06
-0.000611893
1.54764e-05
-1.86721e-05
0.000670278
3.76238e-10
-0.000379705
0.000246739
-0.000129327
8.28851e-05
-3.66297e-09
-3.96834e-05
-2.51726e-06
-1.88376e-06
-8.02652e-06
-3.19574e-06
-1.28809e-05
-3.66935e-05
-9.05299e-05
-0.000191663
-0.000330895
-0.000430315
-0.000514282
0.000514365
0.00501419
0.00693033
0.00120613
0.000429636
0.00904957
3.08476e-05
-0.00683158
-0.0001947
0.00489254
6.58814e-05
0.000190227
1.25504e-07
0.000195097
3.5194e-08
-1.39223e-08
2.13376e-05
-0.00234605
0.00163629
-0.000999517
-7.28027e-06
-1.46428e-08
-1.60829e-08
-4.04059e-09
-8.25381e-06
-2.44718e-09
-6.4779e-06
-4.46858e-09
-2.02603e-10
-5.7157e-06
-7.80247e-10
4.85806e-10
4.98359e-06
-1.78079e-06
1.93117e-06
-2.52219e-06
2.52131e-06
-1.93112e-06
5.9767e-06
-1.06191e-06
2.67009e-06
-6.10932e-06
-1.10027e-06
-2.18522e-07
-5.58502e-06
9.54449e-06
1.79155e-06
6.28031e-06
1.34982e-06
2.79093e-06
8.37418e-06
2.99071e-06
-9.4474e-07
-1.98059e-06
-6.60379e-07
7.07341e-10
-1.12567e-09
6.59082e-07
-5.97896e-06
-2.66992e-06
1.06015e-06
-2.1539e-06
1.09878e-06
5.58357e-06
2.1781e-07
-9.8407e-07
6.55232e-07
4.93684e-06
-6.47655e-07
-5.90326e-06
-5.05166e-07
-3.12565e-06
1.99465e-06
1.98012e-06
3.42733e-10
1.18483e-06
2.15176e-06
1.06901e-06
5.82301e-07
3.10758e-06
-1.99466e-06
-1.04503e-06
4.79591e-10
-5.82251e-07
-1.1852e-06
4.83203e-06
-1.0725e-06
1.88207e-06
-1.0715e-09
1.77316e-09
4.28645e-09
2.20852e-08
-2.41637e-08
6.68863e-08
-0.0002738
-3.06261e-05
0.000273954
0.000324764
0.00012728
-0.0099423
-4.71566e-05
0.00841868
-0.000798929
-0.00501585
0.000408902
0.00347402
-0.000441083
-0.0022911
-0.00343733
0.000284423
0.00239317
-0.00303871
7.86553e-05
-0.00340081
0.00510373
-0.0063035
4.95943e-05
-0.00676435
0.000415944
0.00536701
-0.00665229
-0.00448349
0.00664957
-0.000755707
0.0101035
8.67658e-05
0.00967771
-0.011461
-3.32122e-05
-0.0127283
-0.0110278
-0.00789831
2.3324e-06
0.00739702
-0.00830088
-0.00985936
0.00192349
-0.000744664
0.000457036
-0.0285471
-9.01229e-05
-0.000659994
0.00315327
-0.0308112
0.00305597
-0.0114004
-0.00886389
0.00474773
4.80496e-07
0.000266304
0.000632476
0.0171263
1.48985e-08
0.0125409
-0.0125406
0.000220706
-0.00883206
-4.93364e-05
0.00630395
-0.00510367
0.00676342
-0.000415967
0.00340035
-7.87498e-05
0.00303891
-0.0023931
-0.000284586
0.00154244
-4.90769e-05
0.00130447
-0.00100128
-0.000143492
-0.000393172
-0.00015712
-5.41954e-05
-1.40548e-05
-1.24037e-05
-1.38954e-05
-2.46072e-06
8.46271e-06
1.37191e-05
-0.000103477
-9.08198e-05
6.01076e-05
5.47981e-05
1.80092e-05
-7.81287e-05
-2.58693e-05
-1.90178e-05
-7.17377e-06
-8.54999e-06
1.9627e-06
7.61294e-06
9.55057e-06
-2.33711e-05
3.19525e-06
2.19133e-06
5.34435e-06
7.69649e-06
3.22005e-06
9.91087e-06
-2.31482e-05
7.34e-06
1.26864e-05
2.72878e-05
5.36658e-05
9.23183e-05
0.0001248
-8.94579e-05
-0.00101387
-0.000587124
-0.000282052
-0.000418973
6.05663e-06
7.55085e-05
0.000140769
-0.00448107
0.00501737
3.11104e-08
0.00335579
-0.00335568
4.32061e-05
0.00226054
-5.08256e-09
0.00143833
-0.0014383
1.8836e-05
-0.000812444
-2.26449e-05
0.000501022
-0.000374112
0.000627377
-6.1936e-05
1.8216e-05
-0.000172609
-0.000127373
-5.17612e-05
-6.58525e-05
1.34463e-05
1.5162e-05
-0.000292813
-8.28018e-06
0.000172866
-0.000124937
0.00022911
-2.40014e-05
7.93689e-06
-2.08682e-05
-1.78536e-05
-3.94784e-06
-3.71181e-06
5.06823e-06
3.23371e-06
2.25856e-06
1.16016e-06
8.5745e-06
-2.34381e-06
3.23431e-06
-9.05504e-09
-3.18605e-06
2.32441e-06
-8.56438e-06
-1.54359e-06
-1.98846e-06
-9.17483e-09
-5.12911e-09
5.78116e-06
2.48225e-06
4.67502e-06
3.56921e-06
1.91127e-05
6.84503e-05
-7.57621e-06
9.27216e-06
5.02809e-05
0.000202163
-2.29726e-05
-2.20991e-05
-7.59989e-06
2.20925e-05
5.29568e-05
0.000109297
0.000216874
0.000280681
1.32347e-05
-0.00577943
0.000322263
0.00436591
-0.000471192
-0.00261248
0.000296928
0.00160438
-0.000234732
-0.00105267
-0.0015776
0.000143565
0.00100131
-0.0013044
4.90532e-05
-0.00154261
0.00201869
-4.31972e-05
-0.00226046
-7.54438e-05
-3.79314e-08
4.13694e-08
-4.03907e-07
0.00024537
-0.000244877
-0.000266
-0.000632357
0.0154471
-0.0171263
-0.000246893
-1.17766e-05
-0.000155073
0.000121944
0.000153273
-1.43196e-08
9.13581e-05
-0.000190114
-6.5756e-05
-0.000109245
-4.02237e-05
4.69801e-05
3.46868e-08
6.998e-09
4.24772e-09
-1.36166e-09
-9.72921e-10
1.5333e-10
1.47389e-10
8.05119e-07
9.4224e-06
2.47681e-05
5.94494e-05
0.000124821
-5.46679e-06
-0.0013638
0.000130602
0.000843617
-0.000118736
0.000768484
0.000153681
0.000660172
-0.000111835
-0.000434145
-0.000645634
0.00104311
-5.36982e-05
-6.05969e-05
-2.53364e-05
0.000126173
0.000277168
0.000542714
0.000330982
0.000191665
9.05604e-05
3.67091e-05
4.97846e-05
1.6676e-05
1.28848e-05
3.17036e-06
3.92343e-06
-3.82972e-06
-2.19773e-06
-5.34736e-06
3.31827e-05
7.57661e-06
3.02309e-05
-7.61354e-06
-6.65548e-06
2.31491e-05
2.96618e-07
7.17506e-06
1.90213e-05
4.47329e-05
9.0539e-05
0.000145657
-9.12894e-05
-4.69884e-05
-0.000250045
-0.00133292
-0.00120486
0.00185591
0.00202879
0.00219451
0.000245764
-0.0029755
-2.03455e-06
0.00466901
7.82096e-06
0.000173809
0.00892862
0.00157722
0.000343161
-0.0314422
0.0193637
0.0171622
-0.00160511
0.00699321