/*--------------------------------*- C++ -*----------------------------------*\
| =========                 |                                                 |
| \\      /  F ield         | OpenFOAM: The Open Source CFD Toolbox           |
|  \\    /   O peration     | Version:  2306                                  |
|   \\  /    A nd           | Website:  www.openfoam.com                      |
|    \\/     M anipulation  |                                                 |
\*---------------------------------------------------------------------------*/
FoamFile
{
    version     2.0;
    format      ascii;
    arch        "LSB;label=32;scalar=64";
    class       volScalarField;
    location    "2";
    object      gradTx;
}
// * * * * * * * * * * * * * * * * * * * * * * * * * * * * * * * * * * * * * //

dimensions      [0 -1 0 1 0 0 0];

internalField   nonuniform List<scalar> 
5712
(
-6688.44
-8548.94
-15880.1
-23192
-23657.8
-40836.4
-18181.1
-46319.5
-14808.7
-32539.1
-22146.1
-33688.7
-19872.6
-26059.8
-8739.38
-9993.31
-14923.2
-17095.8
-19284.9
-19122.5
-15171
-18741.6
-22361.7
-20058.6
-5441.72
-4092.2
-6768.01
-4553.31
-12613.5
-10091
-21535.6
-15601.1
-16683.2
-17341.5
-18524.9
-17679.3
-6507.91
-5091.99
-39480.7
-52851.7
-25505.1
-31311.7
-53085.1
-68881.6
-27455
-31432
-29274.3
-41352.1
-25548.9
-33860.1
-14953.8
-24101.7
-2873.16
-968.887
-3025.06
-1090.77
-8673.94
-3502.45
-11894.4
-4377.39
-8469.4
-3248.15
-8999.81
-2886.71
-15334.4
-4879.94
-19781.7
-6675.44
-24178.1
-12009.8
-22135.3
-13117.8
-22657.8
-14654.2
-19929.5
-14978.3
-17415.8
-10346.3
-17418.8
-8881.93
-22839.2
-14594.8
-22889.6
-14728.2
-21051.9
-15852.1
-21306.4
-15920.7
-18809.1
-11942.9
-19480.6
-12235.2
-17798.6
-7713.55
-8227.4
-10028.6
-17871.1
-8435.19
-7183.49
-10171.1
-18847
-7675.05
-9321.47
-10098
-19780.8
-7859.19
-10136.9
-10546.9
-3722.71
-4066.78
-1251.67
-2454.14
-10895.1
-11518.6
-4214.57
-7490.96
-13953.7
-15498.8
-6743.69
-11476.6
-12289.8
-1040.18
-13638.3
-16861.9
-9174.98
-698.852
-7430.72
-12282.4
-19808.5
-13811.6
-9959.28
-12108.5
-10604.5
-9169.92
-14393.4
-3571.27
-2940.04
-2041.94
-2024.56
-10061.5
-8471.99
-6071.75
-5772.28
-12555.3
-10603.1
-7929.9
-7108.28
-5841.56
-7445.64
-12077.7
-12526.9
-14117.9
-12842.2
-15925.1
-13847.9
-10813.6
-9101.86
-9090.6
-9551.17
-12009.3
-9448.08
-10955.9
-7947.61
-9498.61
-6525.76
-11095.1
-7262.87
-10276.3
-4761.35
-8832.1
-9551.02
-12602.4
-16413.7
-13868.1
-20173
-7035.26
-7794.4
-9108.22
-2868.49
-7874.6
-15159.2
-7472.55
-16260.6
-13732.2
-24907.7
-13972.6
-26443.4
-5962.31
-13038.4
-5421.85
-13902.7
-8244.21
-6214.79
-11482.9
-4534.54
-8471.56
-1638.06
-10005
-722.48
-7926.31
-9332.81
-12031.9
-5554.65
-6560.02
-11010.9
-10650.6
-7291.88
-2334.64
-2055.79
-1834.37
-1677.64
-1537.74
-1373
-6908.23
-5656.9
-4888.13
-4444.38
-3566.91
-3088.78
-8451.08
-7273.39
-6711.58
-5347.08
-4349.91
-4104.87
-6532.8
-5763.41
-5615.82
-10916.7
-8273.2
-6955.63
-10307.6
-7593.95
-6145.63
-10816.3
-8515.53
-7394.02
-6752.17
-4437.5
-3454.06
-15705.9
-13554
-11710.8
-10114.5
-8393.16
-6947.62
-9007.35
-6977.2
-5547.6
-7582.84
-5457.29
-4173.16
-7829.86
-4349.3
-2440.13
-10404
-14086.1
-8234.44
-10632.7
-11220
-16474.3
-10028.8
-14589.8
-33.4072
-723.551
512.004
-99.3155
-2958.96
-3341.96
-1224.6
-654.611
-682.25
-2391.18
-9406.63
-13728.2
-6651.39
-3663.09
-9927.56
-9855.58
-15322
-16878.9
616.525
4157.11
-7577.84
-7141.88
-7202.9
-5555.1
-1020.83
-541.196
-665.533
-269.416
-1969.75
-184.498
365.329
867.039
-9227.13
-2374.53
-6246.74
-1616.73
-9050.09
-2755.34
-10959.4
-3524.69
-8832.87
-11927.5
-8168.07
-11633.2
-14228.3
-15052.1
-13579.7
-14252.7
-5632.77
-9399.77
-6504.97
-9338.74
-8669.35
-11206.4
-9565.33
-11321.9
-14150
-13998.2
-14816.8
-14056.5
-5687.75
-9096.44
-6191.34
-9265.12
164.79
-1320.67
-7394.12
-4620.83
730.033
-906.56
-6850.03
-4081.77
-296.323
-1582.13
-7561.51
-5038.38
-751.562
-1854.97
-7601.97
-5217.98
703.567
809.804
-162.259
-9.19772
2952.89
2987.17
232.939
400.463
636.964
2029.19
-1654.66
-993.308
10270.5
9599.63
5592.39
4308.18
467.91
10517.8
10808
4335.01
6413.83
867.543
-10273.4
-8048.39
-7140.23
-6694.46
-4057.51
819.911
756.957
42.5228
-56.9252
2593.73
2538.16
131.197
-108.669
2614.97
3149.43
-661.363
-973.325
5136.37
2315.06
8162.11
5103.14
3657.69
2770.97
4140.99
3587.75
-407.166
-1338.06
-3775.06
-2382.03
-1032.19
1023.23
-988.271
773.184
-1682.99
-349.426
-2067.28
-2360.19
-5214.74
-4764.44
-9929.4
-5985.24
-8123.26
-8171.23
-12333.1
-9987.61
-7819.32
-4593.92
-3891.7
-3863.27
-11709.5
-5163.03
-12881.4
-5790.84
-13756.8
-10193.3
-14681.8
-10929.6
-9493.24
-3736.49
-10637.1
-4334.4
-6161.33
-4877.91
-4743.86
-7030.84
-3977.97
-4480.96
-4051.52
-6518.44
-7115.71
-4819.86
-5362.72
-8073.94
-8658.54
-5238.98
-6731.9
-8337.4
767.257
817.324
917.965
28.0906
286.69
321.43
2793.59
2957.69
2952.92
227.193
821.136
823.92
3538.42
3934.88
4032.64
-563.268
799.813
1079.84
1232.4
1050.41
748.017
3739.01
3814.41
3553.44
3060.94
3449.85
3389.84
3790.3
4061.91
3958.96
-1304.11
359.257
483.775
-3464.16
-1975.56
-1050.8
997.222
2105.2
2696.62
968.393
2382.45
2998.33
437.891
1967.55
2407.48
-2260.78
503.272
830.284
29.6559
39.4603
49.6127
74.6845
267.181
150.282
124.7
119.96
14.8256
77.5647
178.214
272.867
436.084
276.749
310.915
330.679
-214.053
31.3106
255.646
488.101
166.354
226.242
288.296
325.529
40.1157
135.73
136.87
133.536
-209.254
-6.27391
116.996
196.844
-926.267
-190.037
90.2586
290.344
-1449.83
-337.164
-4.35597
502.825
-638.618
-77.4214
173.37
433.752
-1189.15
-255.43
-22.6746
438.126
-989.778
-228.49
118.384
370.955
-1628.02
-402.076
-7.02168
592.332
-1107.44
-303.778
109.627
443.912
-1755.92
-461.054
-28.1978
619.324
10.821
23.4336
43.5762
94.2744
40.1446
32.2239
25.6478
86.0746
76.7724
80.06
136.308
255.869
170.835
108.857
80.6597
233.254
-388.825
-46.1723
147.304
435.43
-169.278
31.6598
105.411
411.511
-66.3671
120.963
220.812
436.994
-8.14948
97.6824
89.2595
415.05
-1019.39
-194.048
16.6812
578.16
86.137
45.046
32.1494
65.8423
161.728
65.5884
34.2646
30.9272
177.615
107.244
69.7123
168.717
413.09
174.436
85.8609
79.2401
108.485
119.784
96.3867
277.314
523.469
245.475
129.578
124.861
-82.9042
109.716
121.614
386.172
413.726
265.652
153.961
158.561
-525.529
16.749
57.7655
367.889
126.011
229.341
140.866
161.655
-1184.01
-118.148
42.5013
424.031
-377.511
57.7518
87.9216
149.208
-910.9
-32.1461
53.474
394.67
-218.861
134.626
118.755
162.393
-1435.35
-223.456
8.42277
460.552
-519.757
-17.634
56.7672
139.359
-1624.33
-327.665
-38.9811
454.246
-650.417
-98.8336
15.7468
120.284
32.8636
14.3016
7.22658
4.15329
2.94816
43.2255
21.8954
11.8619
7.01702
5.02395
78.5316
33.291
16.7762
9.69244
6.93541
97.7922
49.0667
26.6371
15.8492
11.393
104.212
41.7181
20.7591
11.9839
8.60123
131.499
65.1269
35.4642
21.2347
15.3286
68.828
33.3311
18.0813
10.8516
7.84119
49.0341
19.6048
9.71427
5.65713
4.04511
104.423
42.6752
21.6805
12.6896
9.08551
49.8758
17.4817
8.353
4.77773
3.39195
110.071
49.5755
26.3681
15.6817
11.3023
47.1307
17.3913
8.56887
4.94328
3.50624
80.4689
27.9273
13.127
7.48504
5.32293
47.3026
15.6276
7.3216
4.18779
2.98169
70.2574
18.0913
6.83249
3.5423
2.42187
38.835
8.56742
2.94763
1.46388
0.980984
27.445
10.8048
5.25012
2.94989
2.07298
19.8331
8.55959
4.34978
2.47921
1.74859
67.0562
27.0931
13.5055
7.70285
5.46507
51.2143
22.5196
11.6455
6.70222
4.74644
94.1075
33.4374
15.971
8.9718
6.34439
69.4712
30.9935
16.2129
9.36763
6.68257
84.527
38.0931
20.3524
12.0402
8.68241
47.1981
23.5619
12.763
7.47493
5.38947
43.7756
20.935
11.4591
6.8605
4.95182
-317.547
-447.397
-700.851
-1090.44
-697.901
-1354.9
-147.903
-1075.2
510.359
-116.424
-690.957
-1196.28
289.44
206.965
-1132.35
-1810.62
-1450.99
-2079.21
-635.466
-147.881
-33.354
-7.37526
-1.85199
-209.236
-95.1878
-13.4235
-3.56713
-1.55824
-1951.59
-452.021
-102.3
-22.5082
-5.65943
-498.209
-134.835
-32.8288
-6.91192
-1.86454
-3276.55
-760.421
-172.548
-38.0879
-9.55564
-792.062
-228.711
-55.507
-12.8787
-3.23706
-4391.14
-1022.03
-232.849
-51.553
-12.9489
-919.08
-287.168
-71.9501
-16.8831
-4.23422
-5477.37
-1287.4
-295.331
-65.7133
-16.5741
-1011.67
-348.205
-89.8377
-21.3577
-5.41937
-6473.35
-1568.19
-364.719
-81.8398
-20.7342
-1577.2
-484.827
-120.01
-27.6123
-6.92641
-6033.41
-1456.62
-337.293
-75.3724
-19.0354
-1219.86
-410.063
-104.691
-24.5783
-6.17435
-6672.23
-1618.64
-377.155
-84.7624
-21.5075
-1790.47
-532.142
-129.744
-29.4318
-7.36312
-6950.91
-1671.91
-390.092
-87.6282
-22.2214
-1858.77
-554.073
-136.284
-28.7257
-7.60288
-509.592
-6991.07
-6379.46
-2276
1657.73
2821.07
7856.34
11483.4
1778.92
8437.38
-1649.55
2599.86
2511.78
4969.33
9393.18
13295.3
14203.7
17830.8
5800.4
7512.43
-19883.1
-14362.3
-4705.3
-3664.16
-2630.89
-3752.21
-3511
-12212.6
-11632
-9946.93
-10727.9
-8831.4
-6336.69
-8278.33
-5466.53
-4630.98
-5620.69
-3859.4
-19793.7
-10270.5
-3612.94
-6169.38
-8400.89
-5856.95
-6378.63
-4741.16
-2873.5
-4061.75
-4327.01
-4680.95
-19550.7
-12810.3
-12167
-8783.08
-8711.32
-9165.18
-3913.08
-5153.67
-6565.32
-14143.7
-12217
-10246
-9447.58
-8094.64
-9319.74
-6378.08
-4941.41
-3782.93
-1940.68
-4148.73
-3434.44
-2568.78
-1597.78
-545.924
-3269.39
-2733.78
-2054.3
-1275
-432.753
-2334.49
-1938.35
-1445.42
-891.137
-301.215
-3352.64
-2805.06
-2106.06
-1304.32
-441.699
-3112.84
-2584.8
-1930.45
-1193.42
-404.436
-7831.14
-5981.91
-4679.58
-4329.38
-4660.65
-6342.03
-4652.39
-3308.96
-2743.6
-1914.76
-6206.62
-3726.87
-2578.33
-1792.47
-859.06
-5504.44
-3701.01
-2457.64
-1786.27
-1052.65
-4121.9
-2570
-1598.17
-1105.49
-541.041
-5008.84
-3734.51
-2574.44
-1535.86
-527.737
-5631.7
-3616.06
-2361.45
-1412.05
-527.253
-3587.89
-2145.67
-1286.04
-696.507
-234.953
-3811.34
-2936.89
-2064.01
-1232.66
-415.432
-4481.9
-3341.1
-2274.68
-1323.52
-439.232
-3210.71
-2494.81
-1758.72
-1046.51
-349.46
-13067.5
-9938.62
-8010.48
-7105.89
-6742.75
-7551.56
-5463.04
-3989.36
-2701.71
-1212.49
-3002.43
-2345.03
-1676.37
-1020.59
-351.285
-5216.82
-4159.43
-3039.16
-1888.18
-661.557
-6872.64
-5383.89
-3952.64
-2537.37
-958.615
-4975.6
-3999.51
-2956.47
-1861.18
-659.361
-5511.97
-4492.22
-3341.12
-2094.19
-730.007
-4119.17
-3360.68
-2486.8
-1540.68
-527.984
-2474.76
-1990.94
-1445.05
-876.057
-294.495
-3571.79
-2939.17
-2177.12
-1338.45
-452.64
-3675.99
-2923.95
-2110.73
-1282.58
-434.981
-4047.8
-3282.53
-2412.37
-1485.09
-506.807
-13570.2
-11218.8
-9347.56
-8304.9
-7208.56
-8882.03
-6350.81
-4879.26
-3607.95
-1833.93
-8958.79
-7081.9
-5379.33
-3964.94
-1921.98
-6895.88
-5221.77
-3920.22
-2661.1
-1082.73
-7253.48
-5787.36
-4312.05
-2791.42
-1047.06
-7138.85
-5364.1
-4001.16
-2703.82
-1086.74
-3352.98
-2705.46
-1993.13
-1240.93
-431.358
-4535.6
-3740.98
-2783.09
-1720.52
-584.583
-5640.43
-4565.93
-3375.47
-2106.76
-732.213
-5633.85
-11474.9
-11950.9
-32744.5
-11772.4
-43805.9
-6424.76
-15590.6
-11784.5
-9092.65
-19587.1
-16321.7
-11743.7
-11032.9
-21962.5
-17366.7
-4148.18
-3083.05
-8030.16
-5520.91
-9295.41
-7005.82
-24946.8
-18440.4
-15314.8
-11615.1
-15743.6
-9355.6
-1200.24
-3788.75
-40775.5
-53379.2
-24645.8
-31162.6
-53871.7
-69201.6
-26510.9
-31203.9
-30392.5
-41927.2
-24765
-33800.4
-16441.6
-24806.8
-1983
-523.202
-3483.61
-1188.77
-6745.7
-3013.53
-13684.8
-4942.7
-2965.38
-1684.27
-7420.48
-2333.66
-15353
-4824.27
-19959.3
-6724.34
-16608.6
-8606.65
-19156
-11377.3
-15107.6
-10808.1
-16976.2
-13137.1
-15316.9
-8960.76
-12115.1
-6262.36
-21686.6
-13810.5
-22601.1
-14513.5
-19875.8
-15051.9
-20991.8
-15702.9
-18035
-11302
-19297.1
-12058.2
-16785.6
-7418.64
-7313.83
-9663.65
-15017.9
-7585.86
-5484.76
-9504.25
-18573.4
-7599
-8895.14
-9918.71
-19747.5
-7852.18
-10016.5
-10494.7
-1140.59
-1027.76
-277.278
-1225.13
-4634.16
-4797.28
-2904.97
-5773.7
-2604.89
-3246.84
-4519.07
-8546.7
-12139.3
-9691.2
-9434.11
-11800.8
-7802.93
-7624.68
-8185.35
-6973.07
-13669.7
-11932.4
-11605.8
-9754.7
-6803.43
-5861.76
-12867.4
-1109.71
-832.01
-621.055
-696.998
-4310.07
-3419.77
-3656.49
-3222.97
-634.398
507.905
-4323.84
-3397.06
-10169.1
-10798.1
-9515.1
-8711.38
-7127.94
-5176.84
-9343.05
-7436.28
-8410.32
-6587.31
-11601.1
-11778.6
-9947.25
-7743.91
-7380.4
-4983.91
-6529.9
-4111.87
-9790.12
-5943.16
-9335.29
-5050.48
-8331.27
-9471.48
-13092.1
-17393.3
-13812
-20161.7
-6402.27
-7583.99
-7760.09
-2851.17
-7686.05
-15028.4
-7426.36
-16208.9
-13655.4
-25015.4
-13944
-26426.7
-5718.97
-12877.1
-5362.58
-13851.8
-7780.07
-6094.87
-11294.3
-4553.93
-7476.7
-1768.59
-9715.38
-1201.93
-7739.3
-9234.7
-11945.3
-5545.17
-6509.85
-10977.6
-10626.5
-7280.82
-818.107
-759.84
-559.176
-645.691
-2607.04
-1907.31
-2367.73
-2154.93
1074.66
576.733
-2772.95
-3074.53
-10678.6
-10116.1
-7722.5
-6650.44
-4116.72
-3460.59
-5835.03
-4808.91
-5540.32
-4041.56
-18310.1
-15997.4
-8012.58
-6792.2
-6110.29
-4624.68
-5071.61
-3236.88
-5430.82
-2341.35
-5610.96
-9234.06
-4913.63
-9366.54
-8377.32
-10452.9
-9415.18
-12819.8
-987.949
-712.854
-763.723
-647.218
-3633.3
-2582.83
-2968.86
-1653.14
-1366.71
-1646.12
-8337.34
-8947.72
-4680
-4226.9
-9380.91
-9726.46
-14467.9
-16638.4
387.514
3971.63
-7366.66
-7150.17
-7093.74
-5597.45
-1064.13
-959.77
-1158.61
-953.154
-1710.97
-1144.98
-578.356
-482.62
-8118.29
-3731.28
-6901.11
-3126.7
-9318.98
-3659.22
-11075.4
-3893.8
-5378.9
-10256.3
-6994.61
-10741.2
-8700.96
-11709.5
-11445.3
-12696.9
-5210.02
-9192.38
-4707.76
-9153.9
-8188.05
-10837.6
-9423.23
-11224.1
-13250.9
-13346.1
-14560.1
-13879.9
-5585.43
-9035.41
-6173.63
-9257.57
-425.574
-2138.18
-7809.64
-5270.72
-404.467
-2213.57
-7738.96
-5047.29
-737.285
-2157.37
-7791.87
-5436.09
-933.456
-2086.67
-7670.82
-5354.86
-1064.1
-1164.18
-995.255
-1072.26
-2061.76
-2102.45
-1396.38
-1507.28
-8347.56
-7657.23
-3844.3
-3858.16
-3705.11
-5188.52
-4002.47
-219.481
-1748.92
-1275.39
-1372.72
-3580.33
2709.53
-794.494
-13843.1
-11728.2
-10566.6
-9155.12
-5666.22
-1168.28
-1049.17
-1207.22
-1494.86
-2077.54
-1626.79
-1936.83
-2570.86
-7987.91
-7857.02
-4275.57
-5515.3
-5024.85
-6697.15
-3137.99
-5065.86
-4802.48
-5236.04
-1091.46
-1467.04
-2805.43
-4204.83
-9671.47
-7933.64
-7597
-5570.56
-6605.08
-4706.52
-5824
-4221.02
-4223.58
-4632.71
-8302.16
-8190.25
-11199.3
-7216.98
-10417.7
-11167.8
-13054.9
-10980
-9354.58
-5785.87
-6869.79
-6848.42
-12205.8
-5928.91
-13009.2
-5976.27
-13950.6
-10835.8
-14718.8
-11066.8
-10198.6
-4483.68
-10835.5
-4532.79
-7620.57
-5956.05
-6033.22
-8240.65
-6505.58
-6883.33
-5921.43
-8498.72
-7877.23
-5524.21
-6094.11
-8844.17
-8896.22
-5459.94
-6968.39
-8557.21
-840.716
-725.8
-1077.96
-796.775
-1393.36
-1664.24
-1575.6
-1165.34
-7661.61
-6709.15
-3676.2
-1643.05
-7862.01
-7454.18
-6099.51
-5482.42
-5071.63
-4353.48
-1807.66
-1873.28
-4005.31
-1819.27
-8632.55
-7393.98
-4867.61
-3875.93
-3759.58
-2401.74
-2746.42
-1235.2
-4161.62
-99.9761
-227.286
-103.885
-35.9198
22.0221
-212.024
-131.723
-44.7175
14.4658
-614.724
-271.073
-8.88873
168.394
-552.052
-317.179
-36.746
114.236
-1008.25
-402.464
32.2859
385.807
-991.505
-483.184
-161.059
18.8078
-683.688
-325.932
-159.973
-51.1663
-526.377
-215.431
-18.3571
109.97
-1510.32
-529.127
-129.408
132.012
-1794.04
-511.098
-100.866
482.634
-1448.07
-507.653
-84.4552
257.053
-1628.64
-459.766
-128.597
437.327
-1413.17
-487.846
-41.5191
278.245
-1859.64
-526.849
-83.679
562.535
-1281.02
-413.843
40.6266
402.743
-1840.56
-508.649
-57.8682
607.987
-211.237
-85.4328
-13.1356
68.6181
-181.744
-65.0463
-27.7451
65.0746
-544.884
-223.198
-19.1843
178.982
-457.173
-171.285
-72.2781
168.724
-1077.63
-374.607
-10.6907
383.399
-979.156
-325.893
-85.0413
348.785
-1197.53
-441.375
-81.7299
285.991
-904.276
-308.197
-113.333
388.722
-1640.49
-459.089
-112.912
612.116
-131.509
-48.7421
-14.8046
42.9226
-61.0658
-34.0063
-15.0759
0.287052
-396.012
-140.975
-62.2318
101.494
-201.28
-101.71
-54.3286
-7.30829
-702.986
-234.691
-94.9443
182.864
-408.118
-178.263
-84.9869
-6.03109
-1069.02
-338.064
-119.795
277.761
-712.495
-262.713
-112.928
-1.07446
-1407.58
-406.133
-190.027
234.098
-959.294
-317.286
-150.534
-20.7028
-1880.29
-526.265
-203.73
291.209
-949.238
-294.944
-124.185
11.3844
-1812.47
-516.19
-231.799
241.021
-1050.44
-328.511
-145.095
-9.73992
-1856.2
-483.193
-151.459
376.694
-850.579
-238.134
-77.6637
55.7703
-1762.22
-415.322
-93.5795
425.524
-753.856
-170.488
-28.4691
93.0056
-5.19226
-9.28897
-6.64868
-4.37111
-3.25904
-24.8608
-18.3195
-11.4982
-7.29075
-5.38806
-9.82865
-21.1819
-15.1935
-9.93644
-7.35535
-53.8985
-40.5889
-25.4793
-16.0868
-11.8543
-4.2303
-25.4534
-18.637
-12.2011
-9.00765
-70.582
-53.4075
-33.2977
-20.8853
-15.3328
-34.3782
-26.782
-16.7573
-10.4885
-7.69489
-3.8858
-11.2878
-8.22275
-5.34816
-3.98321
-14.8651
-27.7742
-19.2559
-12.3944
-9.17587
5.30769
-9.23804
-7.21366
-4.76439
-3.5549
-41.9937
-38.5663
-24.5218
-15.4437
-11.3452
-0.387639
-10.7184
-7.74122
-5.04261
-3.7608
11.7732
-13.0908
-10.7882
-7.18651
-5.36528
8.48741
-7.37486
-6.04532
-4.00548
-2.98785
38.8206
-0.765182
-4.21109
-3.26675
-2.57357
25.828
0.708747
-1.66095
-1.38198
-1.11321
0.342865
-6.50101
-4.95308
-3.31765
-2.48982
-5.37862
-6.46586
-4.35094
-2.83925
-2.1184
-7.00619
-18.4644
-13.0789
-8.58222
-6.38231
-19.1498
-18.4554
-11.9349
-7.6884
-5.71275
9.80262
-19.8516
-15.2563
-10.1791
-7.59309
-32.117
-27.0566
-17.0553
-10.9208
-8.06185
-38.8497
-32.1917
-19.9748
-12.5765
-9.21707
-36.5852
-22.8034
-13.6416
-8.6077
-6.29555
-27.6274
-18.6924
-11.1765
-6.94574
-5.08662
-55.4024
-201.991
-91.5976
-513.829
-21.2881
-706.069
282.606
-628.372
560.05
-64.7472
-757.603
-1262.08
150.822
-27.8345
-1164.52
-1831.94
-1459.79
-2083.74
-605.667
-143.364
-32.5078
-7.20309
-1.81016
-160.071
-88.011
-12.2873
-3.38576
-1.51816
-1871.52
-439.268
-99.8543
-22.0065
-5.53669
-383.919
-117.395
-30.1422
-6.50621
-1.79304
-3154.25
-739.84
-168.534
-37.2622
-9.35476
-665.138
-208.469
-52.26
-12.3511
-3.13997
-4251.03
-996.526
-227.72
-50.4881
-12.6905
-836.569
-272.227
-69.3034
-16.4113
-4.14185
-5353.12
-1261.42
-289.761
-64.524
-16.2826
-999.911
-342.126
-88.307
-21.0236
-5.34516
-6418.87
-1553.16
-361.026
-80.993
-20.5185
-1588.03
-485.373
-119.847
-27.538
-6.90299
-5952.55
-1435.39
-332.323
-74.2697
-18.7613
-1242.13
-409.84
-104.129
-24.4042
-6.12995
-6640.8
-1609.82
-374.925
-84.2407
-21.3723
-1793.17
-532.124
-129.636
-29.3941
-7.35179
-6940.51
-1669
-389.344
-87.4509
-22.1753
-1858.88
-553.945
-136.232
-28.7159
-7.59952
-518.146
-6907.96
-6104.64
-2205.61
-1574.22
-928.735
-3699.02
-2683.64
-6448.61
-6027.91
-3073.18
-2313.36
-376.802
-578.51
-994.76
-1617.51
-2426.29
-3346.55
-272.46
-586.623
-1221.5
-2129
-3209.53
-4311.27
-286.275
-131.94
-492.631
-336.865
-908.727
-753.755
-1518.86
-1409.57
-2185.52
-2100.8
-2866.11
-2586.69
-4148.72
-4687.69
-5100.71
-7605.28
-8524.94
-9398.79
-5231.68
-5754.65
-5727.25
-5228.11
-4480.29
-3920.91
-340.348
-288.272
-218.898
-136.634
-46.437
-522.182
-441.928
-335.311
-209.173
-71.068
-897.179
-758.589
-575.078
-358.525
-121.776
-1457.15
-1230.5
-931.771
-580.469
-197.097
-2181.86
-1838.99
-1390.37
-865.384
-293.751
-3000.5
-2521.48
-1902.17
-1182.8
-401.486
-245.965
-208.226
-158.038
-98.6059
-33.5024
-529.211
-447.611
-339.432
-211.656
-71.895
-1101.11
-930.507
-705.074
-439.437
-149.238
-1916.88
-1617.82
-1224.56
-762.725
-258.972
-2884.49
-2429.9
-1836.55
-1143.07
-388.052
-3863.97
-3246.26
-2448.99
-1523.27
-517.213
-258.698
-219.183
-166.484
-103.945
-35.3377
-119.237
-101.03
-76.7419
-47.9152
-16.2899
-444.864
-376.649
-285.89
-178.397
-60.6262
-304.25
-257.649
-195.6
-122.071
-41.4863
-820.006
-693.7
-526.131
-328.116
-111.469
-680.312
-575.673
-436.711
-272.387
-92.5407
-1369.02
-1156.69
-876.25
-546.004
-185.41
-1270.68
-1073.73
-813.437
-506.844
-172.102
-1966.41
-1658.19
-1253.98
-780.473
-264.891
-1890.27
-1593.88
-1205.05
-749.75
-254.391
-2570.38
-2160.01
-1628.82
-1012.14
-343.351
-2319.61
-1948.45
-1468
-911.178
-308.833
-3701.19
-3096.01
-2329.02
-1447.71
-491.998
-4145.06
-3441.79
-2580.58
-1607.01
-548.917
-4436.56
-3639.68
-2720.52
-1707.66
-592.992
-6405.66
-5156.15
-3859.64
-2487.18
-911.049
-6782.26
-5309.63
-4006.62
-2716.59
-1116.26
-7156.83
-5497.61
-4176.84
-2941.09
-1308.27
-4669.55
-3908.36
-2942.07
-1829.76
-621.948
-5104.36
-4250.1
-3191.95
-1987.6
-677.758
-5030.34
-4157.53
-3115.89
-1948.35
-669.771
-4513.98
-3688.79
-2761.9
-1746.51
-613.168
-3739.75
-2996.82
-2247.95
-1460.34
-541.183
-3153.48
-2475.36
-1862.42
-1247.53
-490.596
-396.29
-638.676
-1100.51
-1775.9
-2647.09
-3620.36
-299.537
-670.289
-1366.84
-2338.54
-3473.14
-4594.38
-304.832
-147.623
-550.315
-386.907
-1012
-847.343
-1678.45
-1561.06
-2422.02
-2368.4
-3176.75
-2995.26
-4438.23
-4961.24
-5354.97
-7765.07
-8597.56
-9421.4
-5478.08
-5908.54
-5765.24
-5168.59
-4387.58
-3877.82
-358.058
-303.384
-230.463
-143.899
-48.9148
-576.897
-488.657
-371.104
-231.676
-78.747
-993.474
-840.974
-638.303
-398.335
-135.372
-1601.75
-1354.58
-1027.31
-640.788
-217.729
-2384.17
-2013.4
-1525.28
-950.885
-323.061
-3253.05
-2740.92
-2073.29
-1291.97
-439.056
-270.577
-229.222
-174.101
-108.695
-36.9439
-605.275
-512.553
-389.164
-242.914
-82.5596
-1233.44
-1043.72
-791.955
-494.14
-167.92
-2108.16
-1781.99
-1350.97
-842.534
-286.272
-3126.08
-2638.23
-1997.76
-1245.27
-423.095
-4125.1
-3473.19
-2626
-1636.23
-556.097
-275.538
-233.54
-177.461
-110.836
-37.6868
-133.467
-113.152
-86.002
-53.7245
-18.2704
-497.287
-421.383
-320.126
-199.906
-67.9637
-349.697
-296.4
-225.234
-140.675
-47.8304
-913.99
-774.051
-587.749
-366.89
-124.707
-765.466
-648.454
-492.509
-307.49
-104.524
-1514.68
-1281.68
-972.461
-606.733
-206.18
-1409.11
-1192.67
-905.119
-564.78
-191.928
-2183.04
-1844.86
-1398.3
-871.894
-296.223
-2135.5
-1805.3
-1368.61
-853.416
-289.93
-2856.83
-2408.86
-1822.82
-1135.84
-385.898
-2695.6
-2274.28
-1721.37
-1072.43
-364.23
-3971.39
-3333.97
-2517.13
-1569.08
-534.05
-4405.77
-3676.68
-2770.42
-1731.77
-592.683
-4687.37
-3873.33
-2915.33
-1839.21
-640.157
-6586.94
-5344.03
-4031.35
-2613.12
-960.09
-6886.92
-5429.36
-4125.38
-2812.19
-1158.76
-7195.23
-5543.2
-4223.68
-2980.55
-1326.81
-4899.63
-4111.14
-3102.52
-1933.38
-657.874
-5252.59
-4385.22
-3302.42
-2060.89
-703.605
-5074.85
-4205.55
-3160.89
-1981.37
-682.185
-4470.71
-3662.18
-2750.19
-1744.57
-614.119
-3664.96
-2941.01
-2212.25
-1443.05
-537.315
-3118.24
-2448.33
-1844.48
-1238.48
-488.482
-19824.6
-14419
-5087.47
-4073.48
-3107.65
-4345.83
-4005.92
-13007.5
-14610.1
-11551.4
-13329.1
-7884.3
-11268.8
-6023.84
-6291.09
-4589.73
-20496
-11299.2
-4339.38
-7099.31
-9275.54
-6376.96
-7048.59
-5335.23
-3282.61
-4741.59
-5278.59
-5410.79
-19441.7
-13011.3
-12831.9
-9183.37
-9167.22
-9708.13
-4599.5
-5808.66
-7215.7
-14160.9
-12294
-10362.6
-9605.65
-8243.04
-9414.53
-6476.22
-5036.54
-3862.33
-1975.35
-4515.03
-3766.27
-2838.16
-1775.38
-608.343
-3650.52
-3068.55
-2318.15
-1444.75
-491.448
-2782.19
-2335.24
-1760.92
-1095.41
-372.09
-3903.38
-3286.85
-2484.27
-1546.86
-525.387
-3579.64
-3000.41
-2262.03
-1408.65
-479.218
-9536.91
-7947.62
-6560.74
-5908.44
-5811.27
-10887.1
-9401.16
-7613.47
-6070.11
-3578.61
-8326.72
-5857.94
-4414.75
-3074.34
-1329.12
-9910.56
-8191.49
-6422.22
-4705.35
-2263.76
-6667.8
-5348.6
-3946.84
-2465.5
-858.647
-8843.26
-6595.85
-4818.08
-3057.18
-1117.01
-5219.07
-4259.35
-3162.36
-1966.56
-675.077
-5429.41
-4417.27
-3274.15
-2036.21
-699.85
-4011.16
-3294.74
-2451.77
-1521.36
-519.317
-14437.7
-11564.4
-9624.46
-8497.05
-7725.91
-8789.01
-6735.34
-5120.82
-3514.16
-1537.04
-3750.94
-3061.34
-2280.66
-1428.81
-496.8
-6158.88
-5052.94
-3790.59
-2396.66
-844.055
-7820.95
-6325.99
-4774.35
-3113.44
-1175.56
-5511.65
-4516.24
-3397.97
-2164.61
-769.929
-6167.72
-5097.83
-3841.33
-2429.06
-849.366
-4700.91
-3898.08
-2929.83
-1835.85
-632.371
-2900.73
-2405.64
-1800.28
-1118.09
-380.791
-4222.87
-3528.19
-2653.95
-1651.45
-562.114
-4624.07
-3809.74
-2845.28
-1772.86
-608.227
-4766.28
-3948.77
-2962.64
-1851.73
-636.349
-13710.9
-11513.7
-9738.95
-8752.46
-7657.31
-9175.16
-6656.9
-5170.47
-3842.09
-1939.77
-9893.93
-8073.45
-6315.34
-4695.73
-2254.68
-7360.09
-5701.07
-4355.32
-2982.24
-1207.88
-7758.58
-6300.83
-4770.96
-3121.2
-1174.16
-7777.83
-6013.07
-4589.47
-3135.27
-1257.68
-4022.24
-3320.56
-2498.06
-1576.67
-550.262
-5162.46
-4307.72
-3241.75
-2021.65
-689.955
-6295.08
-5185.57
-3897.06
-2460.36
-859.073
-476.635
-1359.82
-2167.53
-2934.17
-3664.67
-4348.31
-2652.6
-7123.52
-6759.6
-2593.42
-9050.26
-7591.47
-9036.93
-9997.06
-2406.85
-1553.74
-5590.96
-3228.9
-10621.2
-7540.73
241.738
-2150.85
-5933.99
-5550.73
-2087.06
-7694.98
-6187.05
-7573.3
-8518.44
-1992.28
-915.576
-4804.11
-1681.74
-8793.03
-4517.8
1578.94
-1569.63
-4508.01
-4202.6
-1527.25
-6072.73
-3706.41
-6134.42
-6783.69
-1501.44
-833.879
-3399.93
-1750.68
-7010.32
-1787.56
1718.45
-1154.08
-3484.14
-3313.99
-1163.74
-4640.42
-2248.65
-5087.93
-5977.49
-1128.58
-876.738
-2487
-1771.15
-6161.47
-358.233
1292.03
-931.318
-2950.81
-2851.56
-979.958
-3723.04
-1861.56
-4557.84
-5795.89
-892.15
-955.943
-1786.11
-1702.62
-5371.72
-141.455
146.996
-821.76
-2630.67
-2616.58
-886.886
-3444.82
-2124.91
-4218.77
-5538.77
-688.075
-750.141
-1473.15
-1666.18
-5285.4
-954.121
-474.612
-1392.2
-3402.99
-4983.15
-1927.68
-5511.98
-9637.52
-7301.87
-10518.7
-1010.72
-713.85
-3890.43
-2400.44
-1162.75
-9232.28
-4828.47
-1296.75
-3176.6
-4383.33
-1676.88
-5102.25
-8724.35
-6598.89
-8969.39
-1034.95
-632.609
-4032.72
-2274.4
-342.912
-9069.86
-3639.29
-1143.2
-2810.04
-3599.81
-1350.51
-4656.98
-7825.18
-5628.85
-7911.08
-921.441
-727.011
-3459.94
-2373.04
-562.83
-7353.34
-3485.79
-992.22
-2541.77
-2997.08
-1100.6
-4358.89
-7128.67
-5025.24
-7202.5
-848.957
-735.517
-3211.38
-2471.94
-370.362
-6839.94
-3520.37
-899.678
-2293.44
-2668.52
-965.482
-3969.41
-6560.03
-4595.72
-6858.2
-797.661
-791.926
-2928.25
-2678.15
-516.083
-6580.65
-3593.93
-837.323
-2051.73
-2478.71
-889.957
-3670.85
-6482
-4275.68
-6640.01
-829.669
-918.69
-2614.84
-2551.42
-770.286
-6737.22
-3980.41
6081.74
7679.16
15916.4
23269
23688.9
40821.7
18189.7
46322.5
14821.8
32545
22191.3
33691.1
19887.3
26142.2
7514
8521.31
14935.9
17098.7
19280
19120.1
15172.6
18739.5
22359
20055.6
5018.63
3809.07
6158.05
4157.34
12615.2
10063.3
21585.4
15623.7
16660
17346.2
18516.9
17680.1
6506.56
5070.9
39486.2
52858.6
25505.8
31313.7
53091.8
68889.5
27454.9
31433
29278.4
41358.1
25548.5
33862.9
14959.5
24107.1
2710.91
929.52
2780.74
1013.99
8645.25
3488.85
11899.1
4378.43
8464.08
3244.98
8987.26
2881.83
15335.2
4879.96
19784.5
6676.38
24177.8
12008.8
22133.8
13116.6
22655.1
14652
19927
14976.4
17413.3
10345.1
17418.1
8880.9
22838.7
14593.9
22889.6
14727.4
21050.5
15850.6
21305.6
15919.5
18808.7
11942.2
19481
12234.7
17795
7712.36
8226.18
10028.5
17868.5
8434.03
7182.1
10170.8
18846.9
7675.09
9320.94
10098.1
19782.1
7859.71
10136.7
10547.2
3499.12
3780.3
1201.78
2306.49
10845.6
11476.4
4191.54
7457.28
13945.2
15489.8
6739.79
11470.2
12289.9
1041.05
13637.5
16858.6
9173.49
699.793
7430.99
12281.8
19804.6
13809.3
9957.94
12107.5
10603.3
9167.85
14392.6
3259.15
2655.19
1842.7
1851.69
10086
8493.65
6125.81
5806.15
12548.2
10600.3
7927.08
7107.6
5841.74
7445.57
12077.6
12526.6
14116.8
12841.4
15921.7
13846
10812.5
9101.72
9089.98
9550.88
12008.7
9447.85
10955
7947.21
9497.23
6525.18
11094.9
7263
10275.7
4761.27
8831.28
9550.78
12601.4
16413
13866.8
20172.1
7034.65
7794.34
9107.65
2868.46
7873.83
15159
7471.82
16260.5
13731
24906.9
13971.5
26442.6
5961.81
13038.5
5421.38
13902.7
8243.97
6214.88
11483.3
4534.76
8471.06
1638.09
10005.2
722.747
7926.24
9333
12032.4
5554.88
6559.92
11011.1
10651
7292.17
2074.56
1841.9
1669.45
1533.51
1416.1
1277.06
6936.42
5667.58
4888.55
4474.52
3580.59
3092.19
8451.21
7274.25
6712.3
5348.1
4352.24
4107.18
6532.81
5763.57
5616.02
10916.5
8273.39
6955.9
10307.3
7594.19
6146.01
10816
8516.16
7394.8
6752.62
4438.59
3455.27
15705.7
13554.2
11711.2
10114.4
8393.22
6947.84
9007.19
6977.32
5547.88
7582.7
5457.47
4173.5
7829.96
4349.59
2440.55
10378.4
14069.9
8206.41
10618.6
11208
16465.3
10014.4
14581.7
72.9112
629.492
-428.461
57.2808
2958.38
3415.49
1225.52
734.125
657.035
2365.59
9390.38
13708.1
6634
3650.04
9920.39
9852.42
15317.8
16877.1
-622.397
-4159.01
7568.49
7137.53
7197.49
5553.05
891.282
491.752
562.213
232.224
2025.18
195.784
-304.618
-850.356
9216.2
2372.99
6240.21
1616.75
9043.41
2753.75
10955.9
3523.59
8823.01
11922.5
8160.32
11629.2
14221.5
15048.2
13574.4
14249.5
5625.74
9396
6496.32
9334.23
8664.62
11203.6
9562.75
11320
14146.6
13996
14814.9
14054.8
5683.36
9093.75
6189.02
9263.32
-168.557
1320.14
7391.41
4619.79
-734.408
905.851
6847.06
4080.72
293.442
1581.4
7559.4
5037.42
750.027
1854.47
7600.51
5217.24
-667.415
-763.419
148.296
1.33328
-2928.09
-2960.94
-228.814
-390.011
-635.63
-2027.75
1654.2
993.027
-10270.5
-9598.81
-5592.69
-4308.36
-468.035
-10516.6
-10806.8
-4334.95
-6412.62
-867.467
10271.4
8045.32
7137.18
6692.04
4056.5
-784.191
-719.48
-62.2602
31.2935
-2564.79
-2513.24
-108.628
129.355
-2613.46
-3147.13
661.115
972.783
-5136.16
-2315.07
-8161.82
-5103.09
-3657.99
-2771.05
-4140.47
-3586.97
406.903
1337.63
3774.1
2381.67
1030.81
-1023.62
987.061
-773.477
1682.18
349.263
2066.76
2359.74
5212.59
4763.42
9927.16
5984.07
8121.56
8170.34
12331.2
9986.54
7817.26
4592.88
3889.8
3862.33
11707.7
5162.01
12880
5790
13755.3
10192.3
14680.5
10928.7
9491.53
3735.61
10635.8
4333.68
6159.78
4877
4742.94
7029.92
3976.54
4480.12
4050.65
6517.54
7114.4
4819.02
5361.87
8073.01
8657.43
5238.27
6731.13
8336.58
-731.554
-762.389
-854.546
-51.3011
-283.042
-312.214
-2767.5
-2943.07
-2942.71
-202.828
-807.918
-814.786
-3535.67
-3932.39
-4030.88
562.179
-799.363
-1079.51
-1232.36
-1050.3
-747.902
-3738.95
-3814.21
-3553.24
-3060.76
-3449.5
-3389.5
-3789.3
-4060.74
-3957.95
1303.52
-359.219
-483.62
3463.93
1975.63
1050.98
-997.365
-2105.05
-2696.39
-968.447
-2382.2
-2998.01
-437.821
-1967.18
-2407.06
2260.33
-503.294
-830.211
-24.8285
-34.9244
-44.5431
-67.0371
-248.85
-139.215
-115.41
-110.422
-14.2954
-77.2604
-178.411
-274.08
-431.505
-275.008
-309.616
-329.828
214.029
-31.3046
-255.587
-487.943
-165.796
-226.061
-288.234
-325.451
-40.1465
-135.714
-136.851
-133.497
209.2
6.27873