/*--------------------------------*- C++ -*----------------------------------*\
| =========                 |                                                 |
| \\      /  F ield         | OpenFOAM: The Open Source CFD Toolbox           |
|  \\    /   O peration     | Version:  2306                                  |
|   \\  /    A nd           | Website:  www.openfoam.com                      |
|    \\/     M anipulation  |                                                 |
\*---------------------------------------------------------------------------*/
FoamFile
{
    version     2.0;
    format      ascii;
    arch        "LSB;label=32;scalar=64";
    class       volScalarField;
    location    "2";
    object      gradTz;
}
// * * * * * * * * * * * * * * * * * * * * * * * * * * * * * * * * * * * * * //

dimensions      [0 -1 0 1 0 0 0];

internalField   nonuniform List<scalar> 
5712
(
7324.32
24061.2
5814.74
24671.7
4365.92
25515
6889.8
39326.9
8465.54
54071.6
8403.22
39386.4
8106.51
32690.6
8425.52
29210.1
5099.08
3155.53
13630.7
8090.34
4995.46
2693.95
14917
7406.13
5574.8
4041.59
17874.8
12578.7
4216.56
3035.92
17581
12774.2
9889.31
4187.16
8542.1
3807.68
3931.16
9226.71
34163.3
9258.06
12235.9
4137.57
44003.1
11946.1
11455.1
3957.88
24401.8
7571.58
12525.4
4369.52
21219.3
6746.01
6018.42
2984
8848.6
3447.96
6513.27
3520.86
8628.17
3311.25
8260.42
4708.52
7437.05
3231.94
10987.5
3949.26
3779.55
1319.76
12445.3
8634.41
7694.34
5629.4
13886
11428.8
7586.85
6566
7299.25
4939.01
10301.7
6901.9
5067.34
3727.26
2570.3
2110.41
4888.43
4223.13
2524.3
2436.64
4867.28
3196.09
2490.55
1600.29
6527.81
3549.84
4901.09
5908.24
8942.98
6364.37
7105.23
10114.3
4315.75
2045.18
2889.17
3381.77
2140.56
889.731
1247.29
1253.56
7944.35
14244.3
5386.43
15900
9310.46
13945.4
6623.71
16645.7
10573.8
12625.6
8528.02
16244.3
12437.6
14795.6
9390.94
9053.23
9897.91
14786.2
13706.5
13500.3
13862.4
19988
12021.3
9287.33
8061.23
9034.46
14140.3
16491.6
14722.8
19122.4
18381.8
15101.5
13992.6
18885.6
17998.5
13070.8
12746.3
17713.7
17344.4
10799.6
8479.13
10092.1
8798.94
11033.5
9876.28
11872.7
11403.1
16301.5
16693.4
10091.5
8751.6
9660.89
9302.45
9980.21
10596.6
11236.2
12633.5
14646.7
16959.3
8348.36
6557.4
5727.78
7282.22
11255.5
13695
7800.45
12327.4
4864.2
6387.38
7251.59
5982.93
1394.88
4831.82
720.064
1735.36
3984.37
8282.95
1468.71
2869.5
676.531
4104.48
374.851
1438.36
4785.04
4859.65
5439.12
3389.69
7577.38
6069.88
8910.24
6159.39
1131.53
2662.5
2701.07
1543.61
1503.73
1947.34
2123.87
1605.52
11725.7
7123.53
2242.54
13270.7
7617.45
2493.94
11248.2
7049.65
2379.76
13064.4
7627.51
2492.42
10349.1
6474.61
2128.28
12749
7665.56
2560.84
5560.57
3024.95
823.19
7138.03
4701.81
1631.96
8523.86
5876.84
2025.79
9862.27
6385.57
2120.13
12627.3
7875.8
2753.03
6592.86
3721.46
1185.74
6733.73
4847.23
1828.73
8002.61
5908.71
2170.41
9992.36
7011.76
2508.08
12774.5
7975.47
2830.42
299.653
2017.61
2855.2
4118.95
2196.09
2519.1
5514.2
5228.21
603.25
1031.86
644.059
1074.73
488.052
1415.7
870.795
1856.56
3228.46
1578.01
4081.69
2359.62
2170.79
3790.91
3412.25
925.681
6114.18
1485.22
-1935.82
704.233
1778.97
1321.21
1230.33
1129.21
9809.63
4485.03
2679.56
1660.26
9963.33
4661.87
3375.31
2102.79
9835.27
5016.63
4895.66
3434.15
3510.74
2527.36
1724.34
1652.58
12650.5
11243.6
5955.86
6179.91
13618.4
12779.7
6719.07
6773.6
5293.46
5448.02
10870
9082.82
3552.15
3719.01
1981.93
2257.47
4138.38
4113.09
2268.57
2432.76
3096.44
3342.19
1732.97
2139.77
4720.48
3306.8
4711.19
3348.76
7351.88
4355.68
7013.37
4631.17
2844.04
2396.95
2983.43
2166.12
1587.59
1502.92
1899.03
1272.87
11614.9
8074.25
5857.94
5945.41
11567.2
8276.89
5889.62
5917.61
12012.3
8620.71
5973.95
5756.6
13877.3
14981
12662.6
8490.5
4841.97
14194
13141
12223.2
10124.5
6569.21
13308.1
12031.4
9630.82
7436.57
4670.3
6845.24
6080.54
6393.62
7301.53
7070.86
5986.85
6464.23
7216.16
7393.32
5971.54
6540.36
7133.92
10708.5
7559.57
9993.85
6957.54
7884.71
6378.53
7395.63
6340.34
6077.66
7082.01
8898.07
7722.75
7874.29
6879.43
6737.4
6119.87
5968.12
5940.71
4786.34
6736.93
7039.86
4760.55
4680.08
2795.09
9196.06
7087.64
6394.82
5144.42
3828.48
2299.29
5554.75
4108.12
4730.93
2235.07
1730.4
995.444
5007.73
3622.37
1747.25
1448.05
4098.63
1829.57
1612.42
848.403
3197.25
2947.39
2824.52
4146.11
4450.61
4216.23
3600.21
5307.38
3240.98
2103.88
2049.59
2816.56
980.584
474.571
216.425
526.383
4205.93
1754.62
517.973
4841.01
1254.21
333.995
4265.58
1899
583.185
4837.89
1306.72
365.204
3998.74
1888.58
488.806
4765.43
1333.25
312.855
4669.1
2367.94
530.231
4218.16
2032.35
478.767
4140.15
1980.17
535.107
4109.66
1921.89
407.191
4760.36
1313.24
196.931
5909.64
2971.46
795.051
5323.46
2641.29
721.532
4846.45
2389.91
694.254
4599.77
1964.12
482.564
5162.28
1231.21
301.165
1747.59
626.252
127.055
-182.815
728.504
275.408
75.9222
-35.3992
1852.23
686.775
179.718
-110.224
926.203
382.51
184.715
85.688
1989.5
764.054
271.243
3.32969
1585.9
734.986
281.94
62.0831
1209
675.895
232.009
-16.7694
1131.03
734.966
420.916
245.794
1648.47
728.174
219.112
-169.392
1408.74
614.38
267.429
-167.173
1946.52
752.819
244.24
-116.75
1759.09
683.928
273.075
-273.41
1322.96
676.555
265.558
-55.9365
1082.08
542.118
287.344
2.0103
977.234
594.753
348.56
210.954
746.156
457.181
302.324
175.504
2219.47
754.147
127.187
-364.551
2189.38
693.426
184.769
-495.518
2218.34
765.688
147.044
-347.255
2122.6
675.129
192.447
-480.66
2177.56
769.239
223.304
-242.796
1983.91
639.814
236.024
-390.391
1911.79
712.272
306.593
-21.5132
2177.23
717.329
331.227
-454.999
1706.75
637.181
306.467
-105.623
1728.33
488.184
165.188
-332.806
686.515
177.352
44.6391
-68.0494
1789.21
522.402
183.617
-316.714
716.978
192.256
57.0674
-54.4876
1827.43
561.316
226.073
-276.307
732.889
209.461
73.2363
-38.0501
1650.86
530.293
259.862
-215.658
713.829
216.928
100.456
-8.65246
1514.72
528.467
280.758
-122.196
641.764
229.523
136.643
31.0966
1055.87
425.499
206.631
-37.9478
605.799
299.045
179.667
93.8459
1219.4
432.91
213.975
-89.7322
611.442
260.967
158.895
63.1746
851.356
410.675
224.38
34.2183
542.857
313.302
195.619
123.838
601.818
371.246
249.852
152.69
452.222
310.166
214.213
159.767
-16.5355
6.65519
6.73453
4.62096
3.45177
-2.47736
4.54305
3.80686
2.55483
1.90861
8.29357
19.4714
13.8087
8.87752
6.51982
24.3579
19.091
11.9769
7.47769
5.44975
35.3373
35.1153
22.8245
14.4549
10.5941
99.0172
64.8516
38.94
24.1073
17.5355
118.564
76.4141
45.8767
28.4761
20.7821
172.74
101.16
58.9397
36.2408
26.4051
61.9828
51.3264
32.2587
20.2548
14.7557
66.6561
48.4785
29.7771
18.6498
13.5948
42.831
41.2229
26.3877
16.7154
12.2395
79.6075
50.5161
29.9176
18.5865
13.5021
80.9195
61.2233
38.0147
23.8266
17.4066
89.6412
57.9984
34.8368
21.6819
15.8116
137.247
81.4835
47.6026
29.2974
21.3386
114.757
67.2855
39.2458
24.1548
17.565
-30.4769
3.30755
4.98506
3.54871
2.67322
-16.6393
1.02705
1.95592
1.42003
1.08442
-14.1596
11.3672
9.36198
6.17522
4.58323
-10.8116
3.88189
3.47853
2.31765
1.73853
6.40698
20.75
14.3596
9.21799
6.82562
11.2896
13.373
8.41016
5.21018
3.83527
52.1758
40.8526
25.0965
15.7759
11.6073
34.9516
25.8466
15.5026
9.65839
7.1055
96.9431
53.7086
30.7488
18.8717
13.7035
1706.33
3897.4
1729.35
3861.22
1896.55
3834.32
2257.34
3987.45
2351.02
4107.25
957.915
1462.96
1558.25
2460.64
516.574
722.606
188.623
245.204
8866.57
2118.4
485.69
108.535
26.9798
2418.08
651.288
173.273
39.4207
8.57497
8761.31
2076.39
475.624
105.4
26.3949
2461.47
726.086
179.013
41.6383
10.3474
8364.15
1968.67
449.288
99.4412
24.9332
2389.23
701.98
172.601
39.9461
9.96286
7658.29
1786.74
406.564
89.9136
22.5523
2320.54
667.532
162.014
37.1651
9.22
6410.97
1488.17
338.826
75.0386
18.8461
2191.11
613.336
147.249
33.5685
8.30357
3031.52
735.881
170.432
38.0237
9.56605
1069.23
304.064
72.4349
16.23
4.00575
4518.7
1081.48
248.531
55.1752
13.8582
1573
441.551
106.06
24.1646
6.01753
1779.1
435.295
101.287
22.7087
5.72429
599.382
177.254
41.9887
9.40597
2.34372
615.172
149.64
34.907
7.8547
1.98166
240.89
64.7542
14.2364
3.98659
0.779334
80.3082
478.508
4600.11
-867.886
757.589
811.893
2368.87
3033.76
1914.22
3587.75
3018.58
4654.25
3641.68
4518.92
1891.25
2546.44
2014.74
2389.99
1047.49
1089.15
2314.38
1682
552.096
-401.054
-695.138
-832.221
-213.831
13105.1
3282.41
4357.27
2871.21
-80.3403
50.2331
3042.69
-1288.23
-683.442
-971.415
-507.381
7189.7
3827.13
1398.15
1123.15
3699.38
2087.07
688.193
1422.54
-1383.86
-768.416
763.515
621.088
8752.85
4318.63
5398.37
2891.1
4098.92
4559.9
1592.53
-798.398
999.338
1630.87
1325.88
1133.91
1009.63
761.264
1327.7
1064.87
829.005
580.838
248.437
484.237
401.336
303.736
192.583
66.88
-358.164
-298.797
-222.909
-136.924
-46.1021
-620.987
-518.467
-387.417
-238.423
-80.3425
-744.483
-622.713
-466.262
-287.459
-96.9654
-185.865
-148.188
-103.412
-58.7644
-18.5815
9427.2
8080.95
6807.2
6134.26
5586.89
2867.31
2472.29
2258.75
1848.55
960.538
3318.99
2620.87
2169.86
1668.51
855.682
2189.09
1734.98
1476.5
1118.36
463.517
46.2198
66.4498
157.762
160.395
77.7308
127.54
187.482
209.1
172.851
71.4423
2566.21
2123.47
1653.92
1138.07
462.443
-773.52
-372.989
-144.381
-24.4828
6.67495
-542.385
-384.248
-231.066
-109.281
-28.0805
-680.013
-418.308
-213.537
-82.3736
-16.794
-460.356
-383.182
-280.342
-167.111
-54.4826
5289.21
4731.42
4041.77
3673.4
3360.01
2933.93
2299.46
1880.88
1405.42
674.272
1275.51
1131.96
940.072
662.442
258.469
983.718
833.961
662.226
448.789
168.974
3075.58
2468.26
1866.59
1230.36
470.164
1841.08
1552.8
1210.67
797.642
287.505
598.384
498.795
385.951
253.445
91.876
1251.21
1042.66
794.968
508.429
178.265
-1199.82
-967.626
-698.489
-417.846
-138.276
-676.335
-552.066
-400.312
-238.557
-78.4098
678.632
579.6
459.753
308.228
113.114
554.672
475.819
378.202
252.816
91.8457
5631.99
4080.1
3468.18
3139.22
2696.65
3287.85
2544.05
1950.14
1376.81
613.576
3956.6
3216.12
2572.71
1971.08
948.817
2303.43
1866.88
1442.53
1002.4
431.812
3479.36
2833.97
2152.22
1404.56
517.157
3445.54
2539.97
2030.46
1496.96
624.687
1387.84
1148.87
874.733
562.027
198.825
-708.859
-585.447
-430.57
-260.262
-86.4567
877.056
742.97
588.417
396.394
146.515
-28096.8
-45976.7
-23300.8
-37210
-24944.8
-52216.4
-29853.1
-66314.3
-17801.4
-12179.3
-20013.9
-12472.1
-16404.1
-10538.5
-20302.2
-10690
-23263.6
-17544.3
-33858.1
-24409.9
-19985.4
-15943.9
-28291
-21270
-16007.9
-16369.7
-13146
-12648.3
-15494.8
-14577.5
-38962.3
-10746.7
-14847
-5544.76
-47619.9
-13204.4
-13269.7
-4940.24
-29002.2
-9130.39
-15203.8
-5822.65
-25799.8
-8015.62
-12035.9
-4844.76
-15316.4
-5551.76
-11426.6
-5027.68
-13310.9
-4820.35
-11840.8
-5751.07
-10634.1
-4224.04
-13616.9
-4810.03
-4774.31
-1676.81
-10179.7
-6782.27
-8786.43
-5367.6
-8961.91
-7213.58
-7699.15
-5493.14
-8945.96
-5106.98
-10481.4
-6560.51
-6019.35
-3598.87
-3236.03
-1991.51
-5190.51
-3581
-2698.6
-1923.11
-6121.12
-3337.3
-3374.84
-1696.02
-7893.42
-4010.84
-5120.11
-5946.17
-10023.9
-6740.46
-7216.41
-10043.8
-5348.06
-2400.04
-3063.19
-3430.62
-2881.01
-1159.92
-1377.06
-1298.11
-11849.6
-14435.7
-6684.76
-16342.2
-12321.3
-13775.2
-7678.65
-16708.5
-12451.9
-12540.4
-9150.95
-15897.7
-8499.84
-6847.62
-9329.38
-10347.7
-10327
-9357.57
-10839.9
-12601.4
-13572.4
-19275.5
-6447.32
-6676.03
-7278.84
-8806.85
-13738.7
-13717.7
-9572.27
-17414.8
-13403.9
-12716.4
-9421.24
-17158.5
-13351.4
-11255.3
-8805.58
-16015.7
-13220.5
-7667.1
-6102.79
-7947.64
-6358.21
-8890.66
-7193.34
-9737.97
-8266.2
-14591.6
-13293.1
-7198.04
-6214.34
-7272
-6328.3
-8021.06
-7513.44
-9643.82
-9576.29
-13455.9
-13868.6
-6625.76
-5291.74
-4873.9
-6371.63
-8253.37
-11374.5
-6241.76
-10510.2
-4485.29
-5904.74
-6410.28
-5245.23
-876.758
-4198.61
-263.364
-1242.45
-3009.8
-7217.74
-678.057
-2024.52
-449.575
-3763.71
-157.267
-1164.06
-4617.64
-4593.9
-5319.01
-3209.73
-7152.85
-5567.87
-8610.47
-5673.46
-1035.51
-2484.15
-2619.14
-1428.94
-1406.22
-1798.2
-2047.25
-1504.69
-5810.1
-1998.45
-7865.51
-2683.15
-5939.71
-2086.21
-8052.38
-2890.14
-5894.44
-2054.47
-8526.27
-3287.09
-3592.75
-1011.69
-4494.65
-1723.73
-5088.87
-1974.9
-6135.09
-2322.43
-9004.16
-3585.25
-4567.88
-1389.19
-4151.56
-2050.1
-5022.41
-2388.99
-6771.19
-2959.37
-9344.5
-3533.39
-6177.02
-5786.38
-4675.39
-4585.56
-10375
-7930.84
-8443.12
-6992.57
-4159.32
-3589.17
-1705.12
-1219.04
-3923.61
-3774.77
-1575.2
-1637
-2992.81
-4635.56
-3549.99
-5008.91
-3764.62
-2500.46
-3260.1
-536.571
-6852.07
-1810.68
2573.51
390.213
-948.675
-314.522
204.95
635.586
-2417.09
-1683.49
-902.739
-530.505
-2577.74
-1786.37
-1364.89
-622.652
-2885.99
-2150.96
-1825.6
-875.751
-1216.42
-111.672
608.184
1042.01
-5105.34
-5491.6
-3949.79
-3695.07
-6911.95
-6924.09
-5741.08
-4821.59
-2571.94
-2870.53
-3840.69
-4417.86
-2394.66
-2079.35
-1007.98
-924.08
-3690.03
-2897.91
-1867.62
-1469.66
-1342.76
-1501.29
-236.619
-585.281
-1684.38
-1173.37
-2429.45
-1739.23
-2629.07
-2110.61
-3746.45
-2851.06
-611.042
-361.797
-1189.08
-678.113
386.692
516.408
-308.14
156.757
-3503.01
-4383.04
-2944.26
-4341.78
-3468.24
-4385.77
-3011.96
-4333.34
-3668.98
-4075.07
-3182.99
-4118.34
-2873.97
-4803.29
-2430.01
-2103.18
-2250.58
-7192.43
-5067.77
-4600.04
-4715.76
-4765.92
-5776.92
-4821.28
-4043.42
-3724.94
-2881.71
-5176.86
-5168.15
-6685.92
-10332.8
-4918.65
-4659.27
-6418.86
-9852.38
-4547.19
-4332
-5926.78
-9090.41
-6988.33
-5354.24
-6253.29
-4734.82
-5405
-4271.77
-5443.97
-4965.2
-5503.98
-8397.87
-5660.49
-5327.43
-4752.36
-4744.79
-4214.56
-4425.97
-4275.53
-5062.22
-3834.91
-7323.79
-3890.77
-2764.37
-2675.81
-980.671
-5655.08
-4944.44
-4388.28
-3242.79
-2038.41
-713.956
-3107.79
-2454.63
-3226.01
-987.469
-461.282
100.864
-3646.64
-2391.44
-659.593
-387.708
-2636.77
-699.5
-297.693
174.395
-1818.43
-1852.3
-1954.3
-3681.93
-2820.81
-3158.7
-2790.02
-5130.07
-1974.72
-1220.95
-1080.2
-2245.71
250.891
393.884
812.921
154.2
-3692.44
-1075.18
-6924.68
-678.419
-3458.81
-1162.69
-6737.17
-704.793
-2667.96
-706.074
-6122.9
-538.625
-2945.8
-664.739
-2676.34
-623.557
-2855.87
-865.959
-2928.87
-543.004
-5757.23
-714.165
-4080.9
-805.204
-3701.54
-594.384
-3691.62
-717.842
-4020.59
-585.253
-6048.48
-722.917
-733.688
-154.634
152.727
390.172
-247.625
-40.1121
58.0589
121.526
-723.875
-122.97
165.55
363.842
-170.539
27.9557
54.7519
64.5518
-741.657
-86.3395
159.922
312.809
-16.64
218.468
344.536
374.924
515.942
442.918
513.31
520.366
957.819
669.683
508.464
363.922
-325.961
107.315
357.291
597.107
-260.751
159.136
275.969
592.572
-798.575
-71.7434
220.203
484.275
-607.713
48.9741
241.569
726.616
122.284
286.81
383.36
504.099
55.7125
256.093
280.557
424.1
557.836
456.301
373.67
289.752
391.289
356.54
285.623
265.402
-1160.68
-261.776
180.411
638.141
-1441.57
-306.759
45.7773
792.087
-1113.75
-227.372
196.953
650.289
-1386.79
-283.785
46.9991
783.853
-1036.43
-174.883
149.59
556.371
-1260.45
-240.124
13.5018
708.4
-687.971
-38.4694
131.584
391.058
-1304.68
-205.705
6.90257
877.77
-639.103
15.4807
156.998
555.926
-1335.27
-233.784
-12.2833
553.456
-580.466
-89.257
19.7652
139.218
-1247.82
-201.012
4.76208
555.778
-552.491
-78.479
22.357
136.594
-1070.52
-136.917
10.263
538.369
-470.712
-51.5636
34.3668
142.461
-878.937
-83.6069
-7.51101
480.528
-385.267
-24.1971
32.5256
135.412
-642.796
2.59983
38.69
410.349
-198.125
38.371
44.137
131.04
-286.705
120.887
192.614
388.158
95.5497
189.781
163.905
189.719
-529.563
29.2215
112.34
396.057
-17.2031
121.021
103.449
160.49
8.74887
219.854
238.181
351.006
208.816
244.873
206.47
202.097
304.198
304.058
245.24
250.36
325.19
285.845
217.132
185.594
86.0057
24.1428
9.4436
4.99422
3.48948
36.1932
11.4914
4.80648
2.59613
1.81557
99.6586
34.6549
16.0385
9.13508
6.53881
56.7386
24.8512
12.851
7.61139
5.51044
122.128
48.2049
24.055
14.0195
10.0897
143.696
71.7371
39.3324
23.6831
17.2288
159.657
82.9033
45.9641
27.6973
20.0981
177.73
101.668
58.4957
35.7264
26.0024
146.259
63.432
33.1977
19.6726
14.2866
123.76
55.8341
29.6498
17.5945
12.7737
131.953
52.1016
26.4029
15.4125
11.115
107.987
51.62
28.194
16.8305
12.2522
156.956
72.8243
38.9318
23.1954
16.8164
126.046
63.0996
34.6634
20.8095
15.1376
148.179
82.744
47.3186
28.8446
20.9834
123.393
68.4366
39.0179
23.7494
17.2832
93.9691
21.5243
7.63627
3.891
2.68678
43.722
8.68252
2.89582
1.43056
0.967716
100.613
27.6091
11.5632
6.36524
4.49123
46.1383
10.9044
4.34802
2.35831
1.64206
103.059
33.0912
15.4182
8.7862
6.23425
51.3531
17.9603
9.04385
5.36335
3.8369
113.298
45.7847
23.7425
13.914
9.96281
66.9136
27.3957
14.5252
8.59394
6.15215
94.4203
50.6874
28.6651
17.3352
12.6191
-1837.26
-3474
-1889.6
-3480.13
-2058.02
-3505.87
-2260.13
-3598.71
-2187.55
-3615.85
-867.474
-1341.94
-1433.56
-2226.04
-434.295
-637.454
-108.689
-171.422
-8901.76
-2110.28
-481.184
-107.078
-26.522
-2397.11
-647.422
-171.793
-38.9299
-8.4319
-8746.37
-2060.58
-470.046
-103.823
-25.9248
-2444.21
-721.999
-177.355
-41.0955
-10.1767
-8267.69
-1941.4
-442.252
-97.7161
-24.4571
-2365.66
-695.445
-170.498
-39.3429
-9.78506
-7496.81
-1751.36
-398.695
-88.1559
-22.0979
-2272.33
-656.216
-159.21
-36.4773
-9.03526
-6249.73
-1454.93
-331.748
-73.5164
-18.4666
-2115.95
-597.931
-143.929
-32.833
-8.11955
-2978.78
-722.819
-167.387
-37.3452
-9.39576
-1020.91
-292.315
-69.8259
-15.6692
-3.8702
-4420.29
-1058.92
-243.544
-54.0958
-13.5919
-1506.68
-427.389
-103.055
-23.5215
-5.86177
-1750.17
-427.998
-99.5157
-22.3012
-5.61927
-563.673
-167.778
-39.7431
-8.90574
-2.21918
-596.096
-144.913
-33.7363
-7.57834
-1.90882
-211.042
-56.6001
-12.2159
-3.51922
-0.6608
99.8598
-1149.84
-5548.7
810.727
-6529.55
-2872.33
-6323.8
-2918.5
-11554.2
-6164.39
-12949.7
-6861.56
-126.39
-486.981
-763.014
-898.98
-803.545
-306.249
-207.049
-759.932
-1153.67
-1277.99
-1032.14
-342.129
-106.685
-113.239
-388.537
-390.391
-554.368
-548.812
-532.416
-507.081
-472.054
-459.153
-356.741
-331.482
853.287
2172.94
3523.94
2503.63
2295.61
1097.1
788.813
2241.29
3635
4220.73
3524.42
1598.69
-113.922
-96.24
-72.8783
-45.3877
-15.4064
-439.56
-372.004
-282.245
-176.057
-59.8133
-688.661
-582.754
-442.105
-275.764
-93.6893
-811.095
-686.086
-520.29
-324.434
-110.206
-724.934
-613.08
-464.747
-289.663
-98.362
-278.479
-237.148
-180.381
-112.353
-38.0656
-186.502
-157.433
-119.132
-74.1567
-25.166
-685.463
-579.645
-439.456
-273.979
-93.0585
-1040.27
-879.367
-666.506
-415.48
-141.119
-1151.47
-972.549
-736.62
-459
-155.878
-929.163
-784.077
-593.424
-369.614
-125.507
-309.252
-261.934
-198.667
-123.766
-41.9986
-96.2318
-81.374
-61.6812
-38.4428
-13.0535
-102.21
-86.4935
-65.6128
-40.9191
-13.8995
-350.846
-297.076
-225.508
-140.716
-47.8132
-352.585
-298.607
-226.713
-141.489
-48.0801
-500.539
-423.777
-321.647
-200.689
-68.188
-495.488
-419.453
-318.33
-198.603
-67.4776
-480.717
-406.982
-308.862
-192.676
-65.4548
-457.55
-387.073
-293.548
-183.037
-62.1678
-426.192
-360.692
-273.514
-170.45
-57.8587
-413.761
-349.453
-264.546
-164.705
-55.8926
-322.612
-273.166
-206.811
-128.465
-43.4785
-298.518
-251.777
-190.183
-118.111
-40.0086
756.541
629.906
473.51
295.281
100.756
1918.3
1592.73
1197.13
748.693
256.707
3074.14
2534.58
1906.66
1203.97
419.629
2168.94
1784.14
1346.18
854.757
299.167
2020.76
1667.35
1252.59
782.389
254.928
996.252
839.656
640.138
401.334
127.889
700.484
583.774
438.657
273.101
93.0219
1985.27
1651.74
1241.07
773.965
264.302
3199.3
2650.05
1989.97
1245.43
427.819
3689.45
3042.35
2284.02
1435.32
496.282
3080.24
2539.55
1907.99
1200.14
413.573
1412.29
1176.78
892.149
564.102
194.24
262.421
622.656
897.384
1030.42
929.227
438.573
397.588
947.179
1330.82
1432.29
1149.42
421.491
213.04
202.703
492.545
478.72
651.616
631.605
615.8
573.14
550.91
474.017
492.721
377.375
-700.096
-1941.42
-3123.85
-1969.47
-1648.26
-391.437
-722.494
-2135.34
-3400.34
-3798.37
-2916.93
-874.596
237.309
201.304
153.104
95.6908
32.5448
562.727
476.958
362.449
226.383
76.9695
810.752
686.931
521.83
325.847
110.771
930.745
788.407
598.779
373.835
127.075
839.674
711.544
540.548
337.512
114.727
399.473
341.158
260.584
163.044
55.4161
359.427
304.773
231.714
144.786
49.2366
855.549
724.699
550.402
343.644
116.817
1201.39
1017
771.971
481.803
163.754
1292.09
1092.99
829.156
517.321
175.808
1036.32
876.133
664.374
414.447
140.85
381.801
324.279
246.729
154.138
52.3936
192.676
163.465
124.339
77.7168
26.432
183.326
155.525
118.293
73.9336
25.1442
445.226
377.47
286.918
179.235
60.9407
432.741
366.889
278.877
174.211
59.2327
588.876
499.126
379.289
236.888
80.5325
570.736
483.682
367.5
229.5
78.0177
556.593
471.844
358.596
223.967
76.1368
517.748
438.624
333.149
207.991
70.6939
498.354
422.803
321.477
200.799
68.2518
428.105
362.563
275.267
171.787
58.3734
447.187
380.526
289.824
181.049
61.4988
341.19
289.198
219.624
137.013
46.5335
-616.826
-510.118
-381.428
-237.281
-80.9649
-1707.48
-1412.34
-1058.82
-661.86
-227.172
-2707.06
-2217.46
-1661.29
-1048.97
-366.869
-1664.52
-1334.93
-987.232
-620.722
-217.086
-1402.74
-1112.75
-805.124
-486.437
-148.751
-320.63
-231.325
-147.419
-74.0995
-10.4764
-640.283
-532.502
-399.524
-248.597
-84.684
-1889.47
-1570.52
-1179.42
-735.583
-251.304
-2984.97
-2466.01
-1848.32
-1156.2
-397.397
-3298.85
-2702.07
-2017.98
-1265.19
-437.597
-2513.45
-2041.23
-1514.43
-945.749
-324.914
-734.153
-578.02
-417.092
-255.672
-86.4467
-1442.48
-908.713
-249.889
657.876
957.733
1216.4
565.323
-10880.1
-1722.02
-3157.4
-1507.21
252.927
-3947.82
834.358
2455.54
1161.38
-5905.3
-2689.93
-465.16
-552.246
-3333.61
-1265.56
-255.503
-1007.94
2119.3
1322.29
-504.034
-163.21
-7737.61
-3578.6
-4269.09
-2060.46
-3491.54
-3337.66
-1071.32
1338.02
-382.84
-698.845
-452.829
-385.19
-475.441
-542.606
-560.344
-355.853
-238.868
-175.898
-95.9977
-206.571
-161.244
-117.595
-74.5393
-26.4464
595.165
504.816
383.569
239.376
81.3351
863.452
729.344
551.965
343.421
116.473
1096.66
926.498
701.466
436.677
148.158
513.377
435.792
329.752
204.038
68.7049
-7705.98
-6777.89
-5988.04
-5941.89
-6107.01
-1092.37
-714.405
-813.051
-933.068
-657.657
-2197.43
-1597.09
-1357.47
-1168.96
-714.285
-958.749
-620.432
-561.805
-499.08
-222.673
236.386
195.128
130.619
61.635
11.9666
-3273.92
-2660.24
-2029.04
-1368.2
-546.787
755.733
633.071
467.623
280.033
90.5082
2131.41
1737.67
1281.89
788.249
266.745
1041.83
872.718
653.685
402.502
135.176
-4071
-3719.45
-3311.98
-3322.93
-3450.23
-1832.38
-1296.18
-1079.63
-899.7
-515.449
-357.376
-289.312
-256.215
-217.191
-105.656
-440.444
-347.992
-275.244
-199.896
-83.9309
-2764.55
-2219.22
-1690.35
-1131.86
-443.049
-1057.32
-850.001
-649.086
-434.025
-161.476
-194.775
-143.853
-106.442
-74.2185
-30.2188
-866.207
-706.2
-532.005
-341.055
-120.975
1890.35
1578.61
1183.01
731.115
246.918
1191.61
1004.03
755.922
466.98
157.298
-418.168
-335.391
-257.958
-175.015
-66.8604
-121.503
-89.9912
-71.3757
-54.8893
-23.5945
-4677.13
-3219.65
-2778.65
-2715.6
-2619.48
-2582.21
-1907.65
-1435.57
-1038.33
-494.561
-2819.77
-2190.59
-1734.23
-1421.65
-738.192
-1512.36
-1154.2
-868.957
-628.425
-303.657
-2914.25
-2338.07
-1764.25
-1158.59
-433.865
-2295.56
-1495.12
-1202.8
-973.554
-449.671
-906.066
-729.648
-548.273
-354.828
-128.055
1207.61
1019.73
769.84
476.931
161.029
-293.726
-223.419
-175.502
-130.384
-54.9347
1.95562
42.6086
96.1549
123.252
84.1482
-25.7633
-19882.7
-17553.3
-16722.5
-19058.9
-14571.5
-11536.1
-13114.9
-9955.94
-17244.6
-15123.5
-15889.7
-14951.1
-13945.7
-11880.8
-14662.4
-16365.8
-14629.3
-13438.5
-15155.7
-12298.4
-10414.6
-10982.8
-8806.39
-15471.1
-13755
-14255
-12994
-12346.4
-11530.6
-11908.7
-12854.6
-11781.5
-10638.6
-11639.9
-10224.5
-8779.98
-9175.44
-7880.78
-12954.6
-11778.3
-12059.2
-11011.5
-10491.8
-9702.67
-9991.56
-8977.8
-8446.68
-7507.49
-7962.2
-7578.5
-6796.85
-6817.89
-6238.66
-9335.18
-9433.59
-8807.64
-8886.13
-7855.13
-7100.3
-7887.31
-5741.26
-5487.39
-4832.37
-5043.07
-5077.28
-4597.66
-4501.8
-4161.12
-6182.72
-6181.25
-5906.81
-5779.96
-5377.81
-4858.73
-5257.57
-2066.75
-1993.18
-1748.58
-1810.93
-1876.24
-1753.7
-1650.31
-1539.4
-2344.35
-2340.79
-2193.64
-2092.47
-2021.23
-1854.92
-1985.92
-7536.83
-7429.45
-11268.1
-12148.7
-7091.43
-6297.87
-9884.37
-8036.33
-5904.26
-4400.49
-5862.37
-4366.2
-5887.63
-5631.93
-4437.64
-7508.11
-7125.74
-10025
-10934.5
-6618.26
-5993.92
-8719.36
-7511.49
-5877.3
-3875.26
-5775.99
-4095.91
-5279.39
-5076.1
-4477.04
-6853.4
-6535.8
-8495.96
-9110.92
-6146.57
-5723.3
-7604.38
-6733.36
-4865.17
-4213.13
-4854.71
-4447.02
-4540.28
-4545.04
-4613.67
-5532.33
-5330.45
-6363.63
-6683.05
-5067.25
-4743.25
-5894.31
-5383.42
-4670.56
-3797.14
-4595.34
-4052.24
-4304.72
-4273.47
-4137.26
-3819.39
-3702.92
-4206.38
-4365.82
-3445.3
-3192.5
-3965.45
-3644.05
-3280.95
-2926.85
-3208.85
-3079.83
-3007.17
-2953.02
-2941.89
-1422.01
-1380.12
-1537.12
-1587.7
-1278.1
-1175.57
-1457.83
-1343.71
-1071.77
-1072.44
-1145.62
-1169.43
-1113.61
-1081.56
-1073.71
7291.2
23564.7
5782.78
24669.6
4349.39
25516.9
6885.52
39335.3
8460.55
54083.4
8386.49
39382.9
8072
32673
8401.82
28577.5
5091.82
3153.81
13631.5
8090.47
4993.92
2693.76
14920.3
7407.31
5539.94
4014.31
17516.9
12343.1
4195.6
3027.17
17595.7
12792
9895.49
4180.41
8542.58
3805.3
3926.37
9234.64
34172.6
9259.35
12238
4137.61
44013.5
11948.4
11457.4
3958.55
24414.5
7573.9
12529
4370.1
21236
6749.03
5960.39
2955.66
8693.27
3389.59
6514
3521.41
8642.64
3316.73
8259.49
4708.71
7441.75
3234.2
10996.6
3952.7
3781.74
1320.62
12444.3
8633.72
7694.17
5629.2
13884.3
11427.5
7586.99
6565.83
7299.39
4938.98
10300.9
6901.62
5067.73
3727.29
2569.94
2110.22
4889.08
4223.27
2524.36
2436.64
4868.09
3196.17
2490.32
1600.1
6528.67
3550.39
4901.27
5908.54
8942.85
6364.68
7105.31
10114.7
4317.11
2045.77
2889.35
3381.97
2140.7
889.833
1247.19
1253.57
7897.7
14239.6
5353.42
15891.5
9312.51
13941.2
6627.06
16642.7
10574
12624.6
8528.82
16243.6
12436.6
14793.5
9390.5
9053.68
9898.68
14784.3
13705.3
13499.5
13862
19988.1
12019.7
9286.44
8060.83
9034.48
14140.8
16516.3
14762.9
19129.2
18363.1
15094.3
13987.2
18877.4
17993.4
13068.1
12742.7
17712.3
17342.6
10798.2
8478.08
10091
8797.86
11032.4
9874.92
11871.1
11401.2
16300.7
16692.3
10090.4
8750.57
9660.06
9301.45
9979.51
10595.6
11235.6
12632.5
14646.7
16958.8
8347.86
6557.15
5727.57
7282.17
11254.5
13694.3
7800.04
12327
4864.15
6387.47
7251.35
5982.83
1394.75
4831.81
719.977
1735.32
3984.24
8282.77
1468.72
2869.47
676.439
4104.54
374.741
1438.32
4785.13
4859.77
5439.34
3389.77
7577.39
6069.91
8910.5
6159.45
1131.53
2662.56
2701.18
1543.65
1503.72
1947.36
2123.91
1605.54
11754.2
7138.26
2251.44
13278
7627.67
2497.45
11244.5
7048.62
2379.68
13061.1
7625.87
2492.25
10346.5
6473.36
2127.98
12747.2
7664.25
2560.5
5559.79
3024.44
823.019
7137.07
4701.15
1631.74
8522.56
5875.98
2025.5
9860.55
6384.5
2119.81
12626.1
7874.79
2752.69
6592.04
3720.91
1185.53
6732.78
4846.51
1828.45
8001.55
5907.87
2170.09
9991.29
7010.86
2507.73
12773.6
7974.58
2830.06
305.134
2019.72
2869.68
4123.47
2198.5
2520.21
5522.27
5230.82
586.264
1019.31
624.799
1057.91
492.389
1415.27
875.234
1855.7
3240.79
1583.3
4086.37
2360.94
2174.52
3798.96
3417.02
929.643
6117.06
1487.26
-1923.69
712.7
1784.77
1326.46
1240.17
1137.07
9822.6
4481.73
2668.88
1652.69
9954.36
4661.67
3373.12
2102.61
9830.26
5015.61
4897.09
3433.82
3514.82
2527.91
1729.34
1654.4
12646.8
11241.6
5956.86
6179.99
13615.8
12777.9
6719.64
6773.6
5294.51
5448.03
10866.4
9081.06
3554.34
3719.61
1983.72
2258.07
4139.72
4113.48
2269.44
2433.07
3098.93
3342.78
1735.29
2140.47
4720.89
3306.81
4711.09
3348.67
7349.47
4354.97
7012.11
4630.58
2845.85
2397.52
2983.88
2166.37
1589.75
1503.97
1899.67
1273.33
11645.2
8079.05
5860.5
5945.79
11558.8
8276.16
5888.26
5917.42
12004.5
8617.23
5972.19
5755.35
13872.2
14977.3
12657.5
8486.93
4840.87
14191.1
13137
12218.8
10120.9
6567.77
13305.6
12028.6
9628.33
7434.75
4669.52
6843.8
6082.81
6389.61
7295.55
7068.89
5986.6
6461.78
7215.05
7391.16
5970.11
6539.45
7133.24
10706.6
7558.38
9991.36
6956.11
7882.27
6377.03
7393.47
6338.89
6076.57
7081.07
8896.48
7721.52
7872.33
6878.02
6735.51
6118.49
5966.61
5939.52
4785.51
6736
7038.24
4759.53
4679.56
2794.63
9194.62
7086.68
6394.32
5143.94
3828.04
2298.9
5553.39
4107.23
4730.91
2234.94
1730.67
995.555
5007.68
3622.22
1747.4
1448.1
4098.62
1829.48
1612.73
848.537
3196.92
2947.01
2824.3
4145.71
4449.65
4215.48
3599.7
5306.73
3240.98
2103.77
2049.62
2816.41
980.902
474.715
216.719
526.504
4209.46
1758.74
520.153
4845.52
1261.51
335.831
4264.36
1899.18
583.206
4835.81
1305.38
365.239
3997.78
1888.28
488.786
4764.66
1332.69
312.736
4668.34
2367.5
530.089
4217.34
2031.93
478.637
4139.28
1979.76
534.992
4108.75
1921.48
407.072
4759.68
1312.9
196.83
5908.79
2970.98
794.884
5322.55
2640.82
721.38
4845.56
2389.46
694.116
4598.96
1963.73
482.436
5161.61
1230.99
301.099
1740.68
622.334
124.774
-183.66
721.295
271.79
74.245
-36.1002
1852.51
686.835
179.683
-110.4
926.312
382.539
184.641
85.5503
1989.4
764.018
271.201
3.21465
1585.78
734.957
281.911
61.9751
1209.11
675.953
232.054
-16.772
1131.62
735.224
421.044
245.841
1648.48
728.198
219.131
-169.411
1408.77
614.424
267.461
-167.141
1946.35
752.782
244.233
-116.79
1758.97
683.909
273.079
-273.393
1323.17
676.666
265.625
-55.9103
1082.25
542.222
287.408
2.05254
977.675
594.967
348.674
211.007
746.434
457.341
302.42
175.562
2218.68
753.227
125.75
-365.624
2191.73
694
184.247
-497.092
2217.88
765.481
147.012
-347.329
2122.14
674.965
192.524
-480.531
2177.17
769.117
223.298
-242.79
1983.46
639.676
236.042
-390.295
1911.47
712.161
306.553
-21.5622
2176.82
717.22
331.219
-454.933
1706.55
637.124
306.44
-105.675
1733.54
490.109
165.63
-334.952
689.848
178.451
44.8169
-68.8584
1786.8
521.64
183.46
-316.346
715.971
191.97
56.9816
-54.3259
1826.88
561.118
226.082
-276.175
732.604
209.365
73.2291
-37.9709
1650.5
530.17
259.845
-215.595
713.654
216.864
100.442
-8.62536
1514.49
528.392
280.736
-122.169
641.653
229.481
136.624
31.0984
1055.87
425.529
206.656
-37.9191
605.817
299.064
179.676
93.8517
1219.29
432.892
213.975
-89.7093
611.39
260.948
158.883
63.1706
851.462
410.756
224.433
34.2624
542.953
313.368
195.658
123.864
602.012
371.373
249.933
152.749
452.382
310.275
214.281
159.815
-17.5484
6.02102
6.355
4.37577
3.26342
-3.15356
4.10753
3.53357
2.37035
1.76295
8.26738
19.4547
13.7932
8.86371