/*--------------------------------*- C++ -*----------------------------------*\
| =========                 |                                                 |
| \\      /  F ield         | OpenFOAM: The Open Source CFD Toolbox           |
|  \\    /   O peration     | Version:  2306                                  |
|   \\  /    A nd           | Website:  www.openfoam.com                      |
|    \\/     M anipulation  |                                                 |
\*---------------------------------------------------------------------------*/
FoamFile
{
    version     2.0;
    format      ascii;
    arch        "LSB;label=32;scalar=64";
    class       volVectorField;
    location    "0.7";
    object      flux;
}
// * * * * * * * * * * * * * * * * * * * * * * * * * * * * * * * * * * * * * //

dimensions      [0 1 -1 1 0 0 0];

internalField   nonuniform List<vector> 
5712
(
(-0.334166 0.55621 0.372185)
(-0.427766 0.321007 1.21641)
(-0.779213 0.888938 0.298718)
(-1.1506 0.589402 1.24482)
(-1.18012 0.974704 0.219705)
(-2.0286 0.727586 1.27231)
(-0.893621 1.4989 0.33703)
(-2.25952 1.90125 1.9111)
(-0.717597 1.98445 0.412468)
(-1.57327 2.47302 2.61373)
(-1.07281 1.29821 0.415508)
(-1.6392 1.14027 1.93404)
(-0.953113 0.822976 0.406733)
(-1.26653 0.661564 1.62218)
(-0.422406 0.418098 0.423485)
(-0.487608 0.284089 1.45909)
(-0.776471 0.894091 0.254892)
(-0.891428 0.881263 0.163994)
(-0.982823 0.784514 0.686346)
(-0.978013 0.902393 0.413115)
(-0.760951 1.20135 0.244061)
(-0.925434 1.03389 0.131877)
(-1.11056 1.42555 0.727989)
(-0.99228 1.1116 0.35892)
(-0.281415 0.383461 0.290848)
(-0.220998 0.269017 0.222524)
(-0.348616 0.218855 0.927311)
(-0.243213 0.166328 0.682668)
(-0.658917 0.446601 0.220153)
(-0.545444 0.363622 0.170258)
(-1.11057 0.278466 0.910213)
(-0.826836 0.233634 0.690195)
(-0.85559 0.880883 0.5194)
(-0.895918 0.883974 0.223181)
(-0.977747 0.864385 0.453121)
(-0.962244 0.68145 0.206746)
(-0.369886 0.643406 0.218576)
(-0.277353 0.530161 0.497884)
(-1.97974 0.519242 1.70401)
(-2.65219 0.599952 0.451727)
(-1.29475 0.830931 0.611889)
(-1.58637 0.837389 0.190062)
(-2.60277 1.80677 2.14228)
(-3.38882 1.88169 0.566517)
(-1.35727 1.2336 0.552343)
(-1.55642 1.28568 0.169783)
(-1.49785 0.766224 1.24835)
(-2.11635 0.646048 0.380921)
(-1.32766 0.79812 0.640119)
(-1.74989 0.560238 0.212903)
(-0.791139 0.372991 1.11292)
(-1.26117 0.392391 0.349027)
(-0.16065 0.334239 0.396987)
(-0.0551646 0.529701 0.196823)
(-0.167609 0.176588 0.512369)
(-0.0613939 0.231034 0.205795)
(-0.48243 0.453074 0.430896)
(-0.198184 0.695851 0.231294)
(-0.650763 0.27588 0.496188)
(-0.244154 0.342341 0.197273)
(-0.481975 0.483618 0.524273)
(-0.183448 0.923759 0.303552)
(-0.490765 0.342323 0.426023)
(-0.160256 0.607506 0.19272)
(-0.82356 0.126788 0.599356)
(-0.266547 0.356401 0.221629)
(-1.06172 0.106154 0.201877)
(-0.364105 0.264824 0.0723117)
(-1.18817 0.759412 0.673057)
(-0.60832 0.948195 0.477982)
(-1.09593 0.813992 0.399562)
(-0.649366 0.96226 0.294128)
(-1.07674 0.908876 0.681552)
(-0.696672 0.90368 0.558179)
(-0.957063 0.956307 0.363037)
(-0.698958 0.909696 0.306855)
(-0.898806 0.720145 0.40656)
(-0.543709 0.994476 0.286446)
(-0.902686 0.713888 0.609237)
(-0.480196 0.96836 0.427666)
(-1.13795 0.815487 0.250052)
(-0.712509 0.966534 0.18238)
(-1.14485 0.822895 0.109691)
(-0.716337 0.970173 0.0890413)
(-1.01785 0.983006 0.221259)
(-0.733343 0.908777 0.186274)
(-1.03238 0.989152 0.0948315)
(-0.732414 0.905311 0.0929029)
(-0.970395 0.674625 0.257857)
(-0.616098 1.00681 0.173322)
(-1.0062 0.656927 0.117834)
(-0.629486 1.01541 0.0745873)
(-0.93548 0.899449 0.383536)
(-0.423221 1.12974 0.215851)
(-0.457967 1.1355 0.301993)
(-0.580098 1.70134 0.359616)
(-0.934357 0.954362 0.551134)
(-0.466059 1.33334 0.399239)
(-0.40881 1.1253 0.458797)
(-0.598586 1.88184 0.630303)
(-0.991403 0.853245 0.24161)
(-0.417768 0.98238 0.119391)
(-0.51107 1.14026 0.169781)
(-0.578379 1.62159 0.200109)
(-1.04313 0.847088 0.109418)
(-0.427105 0.915692 0.0480437)
(-0.551577 1.15523 0.0646632)
(-0.600616 1.60707 0.0701265)
(-0.206517 0.32902 0.56567)
(-0.226722 0.447683 0.999571)
(-0.0717108 0.854879 0.375562)
(-0.150227 1.5638 1.10848)
(-0.592656 0.393731 0.647268)
(-0.627449 0.461445 0.968734)
(-0.24185 1.06887 0.454828)
(-0.454995 1.72531 1.14482)
(-0.757193 0.466976 0.713811)
(-0.822611 0.475128 0.860773)
(-0.400986 1.31004 0.570315)
(-0.693367 1.84082 1.09215)
(-0.486336 1.07139 0.694072)
(0.0113961 1.06171 0.734081)
(-0.625185 0.98858 0.603003)
(-0.842275 1.034 0.604114)
(-0.498363 1.67324 0.649213)
(0.030326 1.04806 0.733816)
(-0.252094 1.05835 0.774872)
(-0.584109 0.996372 0.849437)
(-0.986519 0.921644 0.923172)
(-0.797791 1.96069 1.31044)
(-0.478335 0.96403 0.60106)
(-0.61403 1.00963 0.534935)
(-0.582918 0.970374 0.516703)
(-0.543903 1.07439 0.596886)
(-0.875022 2.17607 0.902049)
(-0.18621 0.116393 1.16906)
(-0.14362 0.141463 1.05129)
(-0.11019 0.260485 1.34683)
(-0.106106 0.659756 1.30874)
(-0.512739 0.160694 1.06828)
(-0.40051 0.187834 0.994567)
(-0.334177 0.341302 1.3189)
(-0.308728 0.702429 1.27151)
(-0.623417 0.226512 0.915609)
(-0.475783 0.191817 0.899522)
(-0.437407 0.441573 1.22127)
(-0.378342 0.755318 1.21186)
(-0.203855 0.988313 0.544664)
(-0.270719 0.894606 0.439583)
(-0.450696 0.945752 0.596793)
(-0.476641 0.844828 0.542133)
(-0.641674 0.896047 0.701612)
(-0.568168 0.736435 0.666648)
(-0.742271 0.716211 0.801208)
(-0.610528 0.590764 0.800793)
(-0.582344 0.555179 1.09604)
(-0.484035 0.838369 1.15189)
(-0.383666 0.921823 0.501588)
(-0.356876 0.823691 0.457674)
(-0.525467 0.986385 0.549651)
(-0.348538 0.903487 0.580606)
(-0.511982 0.922806 0.61916)
(-0.310648 0.810569 0.713048)
(-0.476523 0.829601 0.726664)
(-0.276683 0.71236 0.868022)
(-0.610275 0.580028 0.948038)
(-0.371808 0.815812 1.14839)
(-0.444714 1.00616 0.438809)
(-0.134978 1.10607 0.342357)
(-0.402228 1.01149 0.285185)
(-0.380762 1.14735 0.344179)
(-0.526867 0.92251 0.52623)
(-0.622769 0.922504 0.600944)
(-0.586865 0.910889 0.349443)
(-0.796647 0.947627 0.526863)
(-0.344373 0.976645 0.268085)
(-0.3267 0.979303 0.329661)
(-0.414923 0.967436 0.419628)
(-0.0535318 0.945993 0.346953)
(-0.365527 1.00689 0.0727824)
(-0.634169 1.15803 0.218748)
(-0.349232 1.00683 0.0214346)
(-0.689714 1.16255 0.0671349)
(-0.584055 0.889766 0.168136)
(-0.993987 0.968891 0.340149)
(-0.593316 0.886458 0.0464656)
(-1.06638 0.971598 0.10542)
(-0.303894 0.979418 0.0506555)
(-0.578806 0.976176 0.202559)
(-0.28302 0.982526 0.0121386)
(-0.626597 0.978455 0.0613437)
(-0.434159 0.872492 0.280268)
(-0.28123 0.823099 0.274848)
(-0.629496 0.578634 0.32844)
(-0.220539 0.667684 0.212745)
(-0.417644 0.8714 0.459405)
(-0.00642553 0.807322 0.373893)
(-0.537799 0.573105 0.549239)
(0.0268589 0.685564 0.393323)
(-0.426599 0.880815 0.0799079)
(-0.443904 0.816653 0.146362)
(-0.66208 0.590093 0.162098)
(-0.287712 0.66387 0.0970933)
(-0.364378 0.884309 0.0749905)
(-0.530566 0.807541 0.0944831)
(-0.59755 0.608324 0.10779)
(-0.380022 0.661973 0.0800734)
(-0.102113 0.0833796 0.849223)
(-0.0816655 0.0463453 0.520129)
(-0.0614225 0.0271601 0.167513)
(-0.0758191 0.0431958 0.954171)
(-0.0632734 0.0224455 0.553947)
(-0.049579 0.0194138 0.182279)
(-0.290721 0.119053 0.814871)
(-0.19958 0.0542448 0.513625)
(-0.145385 0.0342073 0.176533)
(-0.204024 0.0800633 0.931477)
(-0.135728 0.0535257 0.552116)
(-0.0993336 0.0383689 0.181787)
(-0.321402 0.122585 0.744028)
(-0.232146 0.0747967 0.470732)
(-0.193488 0.0634346 0.156142)
(-0.240524 0.135471 0.897604)
(-0.159103 0.090886 0.548278)
(-0.133195 0.0714872 0.183319)
(-0.207629 0.742751 0.314803)
(-0.145707 0.557171 0.191075)
(-0.127832 0.445668 0.0590633)
(-0.384474 0.7203 0.454067)
(-0.227292 0.55994 0.303634)
(-0.163564 0.457131 0.103479)
(-0.407902 0.543481 0.581662)
(-0.236677 0.420092 0.396619)
(-0.158337 0.351538 0.136149)
(-0.424115 0.410306 0.701367)
(-0.270465 0.285241 0.458829)
(-0.205098 0.228735 0.153094)
(-0.328372 0.210257 0.879836)
(-0.175655 0.120851 0.555505)
(-0.115492 0.0871452 0.191801)
(-0.541224 0.697013 0.355097)
(-0.382275 0.531988 0.220461)
(-0.275253 0.421533 0.0773792)
(-0.389477 0.763977 0.456126)
(-0.266047 0.571495 0.331914)
(-0.175122 0.448415 0.126616)
(-0.392197 0.608215 0.576266)
(-0.246523 0.418683 0.421602)
(-0.150899 0.31857 0.156877)
(-0.368412 0.425693 0.718182)
(-0.216691 0.266048 0.50408)
(-0.125823 0.199292 0.182188)
(-0.439749 0.220606 0.89269)
(-0.213057 0.117288 0.568102)
(-0.0925846 0.0785475 0.203253)
(-0.469333 1.16203 0.00970321)
(-0.619017 1.10197 0.0811958)
(-0.385038 1.29743 0.111207)
(-0.481694 1.12721 0.164386)
(-0.543585 1.34915 0.10184)
(-0.772503 1.13359 0.11195)
(-0.499325 1.67646 0.250204)
(-0.697134 1.22507 0.232869)
(-0.000265314 0.855633 0.0228361)
(-0.0273132 0.823155 0.0349593)
(0.0192496 0.85474 0.024337)
(-0.0079137 0.756853 0.036309)
(-0.12398 0.967945 0.0155367)
(-0.129998 0.866736 0.0483441)
(-0.0598996 0.96577 0.0299055)
(-0.0356065 0.78754 0.0639553)
(-0.0488715 0.951988 0.111458)
(-0.113745 0.922472 0.0561886)
(-0.40447 0.874404 0.14906)
(-0.569461 0.911449 0.0888574)
(-0.260816 1.10142 0.0745195)
(-0.161548 1.01604 0.125028)
(-0.456896 1.21005 0.129647)
(-0.455571 1.24226 0.00222817)
(-0.736953 1.3579 0.271561)
(-0.813433 1.4209 0.0393785)
(0.01317 0.977632 -0.116366)
(0.169087 1.02854 -0.0224008)
(-0.33319 0.878198 0.0459755)
(-0.309881 0.860157 0.012436)
(-0.297795 1.031 0.0140668)
(-0.226765 1.06663 -0.00673355)
(-0.041268 0.611052 0.33257)
(-0.0213721 0.314172 0.131111)
(-0.0320898 0.579947 0.0887249)
(-0.0162768 0.348995 0.0481069)
(-0.0849545 0.625857 0.338826)
(-0.00985125 0.316542 0.134784)
(-0.00284152 0.582899 0.111911)
(0.0192368 0.345959 0.0598271)
(-0.368312 0.62414 0.337249)
(-0.0850758 0.317083 0.142969)
(-0.265061 0.590142 0.154982)
(-0.0693266 0.3619 0.091489)
(-0.369111 0.580124 0.0998829)
(-0.107621 0.379181 0.0599187)
(-0.438954 0.590175 0.0190078)
(-0.129062 0.373357 0.0212911)
(-0.409391 0.844913 0.521649)
(-0.493225 0.687778 0.448834)
(-0.373211 0.862045 0.235237)
(-0.478341 0.699179 0.236297)
(-0.673356 0.96264 0.613763)
(-0.667782 0.841207 0.56121)
(-0.637903 0.999088 0.294159)
(-0.627756 0.848068 0.286631)
(-0.241531 0.817532 0.186697)
(-0.352901 0.553091 0.186083)
(-0.280434 0.832214 0.410082)
(-0.352093 0.536291 0.326073)
(-0.391029 0.896982 0.125566)
(-0.459471 0.702767 0.131954)
(-0.424283 0.915403 0.049557)
(-0.459118 0.696077 0.066864)
(-0.663605 1.04435 0.167723)
(-0.614452 0.850423 0.163705)
(-0.691352 1.05375 0.0715814)
(-0.61223 0.842601 0.0824123)
(-0.240341 0.822145 0.0934581)
(-0.339707 0.559253 0.104988)
(-0.255141 0.824441 0.0321131)
(-0.34074 0.555485 0.0564917)
(0.00746664 0.503602 0.147826)
(-0.0308137 0.313878 0.0832713)
(-0.241888 0.413635 0.14091)
(-0.114507 0.258831 0.0785649)
(0.0220603 0.457338 0.245931)
(-0.0182822 0.277477 0.114846)
(-0.223829 0.391082 0.220069)
(-0.100164 0.240292 0.113715)
(-0.00681766 0.522455 0.0740375)
(-0.0393775 0.334727 0.0528872)
(-0.24521 0.422879 0.0817076)
(-0.124384 0.266899 0.0456291)
(-0.0178099 0.524753 0.0224266)
(-0.0448326 0.345217 0.0222115)
(-0.24193 0.420868 0.0437449)
(-0.125566 0.267476 0.0211155)
(0.0212788 0.0903726 0.37609)
(0.0241305 0.0445833 0.220182)
(-0.00607464 0.162829 0.161111)
(0.000995977 0.0900698 0.139283)
(0.0935061 0.0950223 0.378294)
(0.0896846 0.0529798 0.233181)
(0.00684348 0.171913 0.160911)
(0.0158081 0.10462 0.139234)
(0.0158636 0.11494 0.404812)
(0.0580603 0.0783895 0.259995)
(-0.0460479 0.188713 0.16339)
(-0.0198903 0.132865 0.138966)
(0.373251 0.462067 0.572579)
(0.399632 0.762969 0.678235)
(0.18717 0.322839 0.474078)
(0.138749 0.303444 0.282268)
(0.0217979 0.214584 0.126193)
(0.431161 0.726344 0.637273)
(0.395393 0.472357 0.530165)
(0.137672 0.258504 0.440934)
(0.195923 0.257843 0.321225)
(0.0358159 0.173167 0.159879)
(-0.450235 0.784384 0.59319)
(-0.333073 0.585208 0.485365)
(-0.261963 0.442719 0.349361)
(-0.212194 0.329067 0.235372)
(-0.0969107 0.207334 0.113664)
(0.0204086 0.0217767 0.149825)
(0.0155149 0.012484 0.107685)
(0.00295702 0.0539758 0.119878)
(0.00211126 0.0383704 0.110116)
(0.0673497 0.0288261 0.166332)
(0.0537229 0.0154753 0.115587)
(0.0103055 0.0695567 0.125875)
(0.00709895 0.0509965 0.113954)
(0.0690244 0.0489013 0.19538)
(0.0697851 0.0291607 0.1354)
(-0.00630768 0.0956713 0.135437)
(-0.00596977 0.0714559 0.121688)
(0.186578 0.703724 0.475134)
(0.0591578 0.618022 0.338305)
(0.268228 0.44036 0.391762)
(0.136019 0.374322 0.264504)
(0.101849 0.26351 0.271182)
(0.06004 0.229115 0.20272)
(0.112435 0.214542 0.217125)
(0.0806538 0.163525 0.164233)
(0.00403515 0.141077 0.131955)
(-0.0114845 0.104969 0.128385)
(-0.16666 0.680705 0.39717)
(-0.0996167 0.563098 0.343575)
(-0.0598285 0.492045 0.313194)
(0.0155849 0.381032 0.262967)
(-0.0419486 0.358084 0.234459)
(0.013593 0.271255 0.197967)
(-0.0431939 0.258484 0.172972)
(-0.00301768 0.19321 0.152767)
(-0.0300873 0.174099 0.100951)
(-0.0276069 0.144155 0.121083)
(-0.202086 0.526866 0.278314)
(-0.167606 0.372237 0.188145)
(-0.371415 0.542192 0.178157)
(-0.214878 0.377473 0.112348)
(-0.333277 0.677834 0.401523)
(-0.302811 0.516172 0.304935)
(-0.497572 0.691604 0.26826)
(-0.379495 0.52945 0.218713)
(-0.25999 0.421353 0.127794)
(-0.14213 0.292191 0.0778124)
(-0.131315 0.400313 0.192285)
(-0.115584 0.282333 0.135878)
(-0.434754 0.549551 0.16608)
(-0.188186 0.379201 0.0793759)
(-0.473249 0.547169 0.0467011)
(-0.208715 0.379387 0.0246357)
(-0.552529 0.696543 0.193967)
(-0.389825 0.550089 0.14171)
(-0.585874 0.692348 0.0521379)
(-0.419874 0.551032 0.0439197)
(-0.315031 0.433808 0.128313)
(-0.117444 0.293131 0.0555793)
(-0.348452 0.432671 0.0388715)
(-0.134092 0.296164 0.0179561)
(-0.167886 0.307422 0.0857139)
(-0.11177 0.216722 0.0706813)
(-0.0853627 0.205556 0.0546301)
(-0.114989 0.179109 0.0721029)
(-0.103408 0.290915 0.125143)
(-0.0991156 0.205034 0.104011)
(-0.0704813 0.195439 0.0713283)
(-0.105482 0.165525 0.0914171)
(-0.194422 0.322587 0.0866104)
(-0.107666 0.223495 0.0486173)
(-0.0959127 0.211271 0.0393143)
(-0.132005 0.189132 0.0488624)
(-0.237895 0.328855 0.0174638)
(-0.115666 0.223201 0.00650542)
(-0.130667 0.219065 -0.00732871)
(-0.134255 0.191174 0.0026891)
(0.0116553 0.0228338 0.0671145)
(0.00983384 0.0176292 0.0282199)
(0.0100187 0.0131905 0.00819072)
(0.00126969 0.100043 0.0676169)
(0.0034269 0.0460813 0.0190341)
(0.00346877 0.0337829 0.00511022)
(0.0430048 0.0224264 0.0745066)
(0.0370079 0.0198236 0.0331532)
(0.0332611 0.0159015 0.0100719)
(0.00519064 0.112544 0.0712282)
(0.01004 0.0562611 0.0211267)
(0.00918301 0.0427887 0.00592118)
(0.0600738 0.0340144 0.0837243)
(0.0530306 0.0333188 0.0395937)
(0.047451 0.0305191 0.0110017)
(-0.00537357 0.131786 0.0765373)
(0.0101944 0.0737812 0.0238098)
(0.0121207 0.0585729 0.00609813)
(0.019004 0.495508 0.220894)
(0.0157538 0.383349 0.124353)
(0.00568945 0.317503 0.0352349)
(0.0705982 0.29879 0.162628)
(0.0651547 0.236403 0.0853566)
(0.0546649 0.202089 0.0243075)
(0.0507104 0.190974 0.127406)
(0.0506156 0.152832 0.0643095)
(0.0458795 0.133785 0.019003)
(0.0640401 0.140382 0.100205)
(0.056619 0.110881 0.0477858)
(0.0494585 0.0948964 0.0124499)
(-0.0171199 0.159953 0.0819388)
(0.00400551 0.0956883 0.0254832)
(0.00547874 0.0761132 0.00530224)
(-0.137418 0.439654 0.258887)
(-0.0742385 0.327591 0.141755)
(-0.0397042 0.261507 0.0445544)
(0.000422366 0.284671 0.192863)
(0.0230661 0.209762 0.0991989)
(0.0329288 0.170014 0.0300237)
(0.00439156 0.204098 0.144901)
(0.0276755 0.14879 0.072651)
(0.0354288 0.12123 0.0219401)
(0.00115491 0.167356 0.109709)
(0.0227681 0.118736 0.0497608)
(0.0273305 0.0940453 0.0137942)
(-0.0333623 0.204333 0.0894951)
(0.00475225 0.110394 0.0248919)
(0.0087467 0.0847911 0.00650363)
(-2.20976e-06 0.151417 0.0431601)
(0.000130237 0.07377 0.0133507)
(0.000141523 0.0361478 0.00334462)
(0.000259211 0.0169852 -0.00011338)
(0.00499675 0.170768 0.0178665)
(0.00192989 0.0805937 0.0056845)
(0.00116237 0.0383956 0.00159141)
(0.000736031 0.017679 0.000180928)
(-0.00130193 0.152113 0.044783)
(-9.48775e-05 0.0738008 0.0140857)
(0.0011923 0.0362405 0.00386153)
(0.00138378 0.0170376 0.000346293)
(0.00710041 0.174084 0.0215294)
(0.00294952 0.0823782 0.00711218)
(0.00299608 0.0396321 0.00285913)
(0.00211512 0.0183429 0.00109228)
(-0.00719047 0.151977 0.0466702)
(-0.00155633 0.073247 0.0149095)
(0.00175398 0.0373172 0.00495075)
(0.0027219 0.0178425 0.00126363)
(-0.000865864 0.177784 0.0331507)
(0.000865037 0.0834741 0.0116063)
(0.00165715 0.0417621 0.00300376)
(0.00147646 0.0196633 0.000463987)
(-0.0030552 0.190898 0.0199729)
(5.89223e-05 0.0880042 0.00803847)
(0.000194275 0.0411273 0.000751513)
(0.000228315 0.0187591 -0.000803556)
(-0.0072578 0.194343 0.0122688)
(-0.00164998 0.090401 0.00611656)
(0.000508023 0.0412932 0.00193204)
(0.000892324 0.0187047 0.000645446)
(-0.0241172 0.160718 0.0342802)
(-0.00631945 0.0780495 0.0118744)
(-0.00149827 0.0394545 0.00264511)
(0.000440089 0.018614 -0.000873304)
(-0.0325646 0.133877 0.0272799)
(-0.00822855 0.0689168 0.00918345)
(-0.00282455 0.0362053 0.00320315)
(0.00139541 0.0174046 -0.000434262)
(-0.0165085 0.141705 0.043653)
(-0.00382913 0.0707948 0.0140705)
(-1.35063e-05 0.0372187 0.00428856)
(0.00186908 0.0180972 0.000306429)
(-0.0266011 0.124317 0.037029)
(-0.00646462 0.0651647 0.0117522)
(-0.0028506 0.0348807 0.00414648)
(0.000944306 0.0169797 -0.000689781)
(-0.0255077 0.172942 0.023398)
(-0.00685718 0.0831812 0.0088725)
(-0.000823131 0.0405659 0.0022127)
(0.00123948 0.0187467 -0.000334202)
(-0.0362709 0.139274 0.0181294)
(-0.0094424 0.0714443 0.00661451)
(-0.00301726 0.0368666 0.00260395)
(0.00182772 0.0176264 0.000216842)
(-0.0269797 0.178771 0.0122285)
(-0.00761528 0.0861878 0.00544278)
(-0.000620043 0.0413331 0.00200694)
(0.00177714 0.0190943 0.000778128)
(-0.0383709 0.141164 0.00909428)
(-0.0102789 0.0729983 0.00393941)
(-0.00329431 0.0375144 0.00186511)
(0.00185397 0.0180357 0.000729052)
(-1.38985e-05 0.113725 0.0531484)
(4.41338e-05 0.062679 0.0162346)
(0.00016988 0.0329936 0.00412462)
(0.000379415 0.0161407 -0.000646515)
(0.000988504 0.0780206 0.0489211)
(0.000393923 0.0503096 0.0147151)
(2.30773e-05 0.0291786 0.00527369)
(0.000322363 0.0148885 -0.000763642)
(0.00125387 0.114227 0.0525992)
(0.000526847 0.062548 0.016122)
(0.000876839 0.0330925 0.00417029)
(0.00121008 0.0161977 -0.000644436)
(0.00409208 0.081296 0.0474692)
(0.0015134 0.0511734 0.0142142)
(0.000305567 0.029448 0.00523269)
(0.00093833 0.0150021 -0.000788512)
(-0.00957701 0.117519 0.0509199)
(-0.00251621 0.0628924 0.015662)
(0.00016507 0.0338336 0.00498203)
(0.00174518 0.0166459 7.24714e-05)
(-0.00373735 0.0908013 0.0446651)
(-0.000570821 0.053789 0.013281)
(-0.00016845 0.0303979 0.00558743)
(0.00154215 0.0153739 -0.000312679)
(-0.00200669 0.117002 0.0434116)
(0.000557508 0.0618125 0.0136715)
(0.00127885 0.033683 0.00542502)
(0.0020824 0.0170888 0.00145241)
(0.000144804 0.0993604 0.0485986)
(0.000828434 0.0558248 0.0143922)
(-0.000246988 0.0317696 0.00701454)
(0.00151042 0.01581 -0.000206284)
(-0.0223997 0.111277 0.036946)
(-0.00522118 0.0605477 0.0115206)
(-0.00229063 0.0332817 0.0049035)
(0.0018997 0.0166893 0.000434441)
(0.00184259 0.0486958 0.035433)
(0.000693674 0.0411333 0.0100183)
(0.000255737 0.0234065 0.00423176)
(0.000325341 0.00677115 -0.000120717)
(0.00323603 0.0230348 0.0133716)
(0.00112054 0.0364584 0.00357042)
(0.000395886 0.0212885 0.0012184)
(0.000204051 0.00652784 0.000206317)
(0.00392092 0.0541619 0.0373235)
(0.0015918 0.0429573 0.0106107)
(0.000372538 0.02413 0.00439834)
(0.000741745 0.00713982 -7.44114e-05)
(0.00847083 0.0284344 0.0142551)
(0.00298545 0.038368 0.00383982)
(0.00093945 0.0218933 0.00136756)
(0.000496328 0.00670218 0.000302253)
(0.0026775 0.0651228 0.039132)
(0.00156383 0.0463179 0.0111998)
(0.000313693 0.0250901 0.00480759)
(0.00113161 0.00719297 9.57751e-05)
(0.0112776 0.0385054 0.0150819)
(0.00417583 0.0417491 0.00412079)
(0.00136003 0.0227464 0.00151274)
(0.000737737 0.0068385 0.000396773)
(-0.00108088 0.0795693 0.0358775)
(0.00108564 0.0505724 0.0103612)
(0.000252918 0.0268296 0.00504904)
(0.00157185 0.00784717 0.000303817)
(0.00987693 0.0508921 0.0150893)
(0.00439763 0.0458026 0.00417812)
(0.00147821 0.0240579 0.0017987)
(0.000854113 0.00720679 0.000549558)
(-0.0103282 0.0910582 0.0327004)
(-0.000909658 0.0547794 0.00977507)
(-0.00111558 0.0290159 0.00484183)
(0.00111831 0.00899209 0.000562174)
(0.00444898 0.0580866 0.0137639)
(0.00351122 0.0493645 0.00414879)
(0.00104963 0.0253183 0.00208037)
(0.000738478 0.00754507 0.000707896)
(-0.0248492 0.100013 0.0200439)
(-0.00430359 0.0596641 0.00624451)
(-0.0020326 0.0299583 0.00234586)
(0.00105269 0.00878965 0.000185264)
(-0.00747614 0.0599868 0.0112926)
(-0.000184743 0.054026 0.00403328)
(3.2381e-05 0.0276204 0.001678)
(0.000377713 0.00814179 0.000653021)
(-0.0185773 0.0965851 0.0251371)
(-0.00242367 0.0576294 0.00743938)
(-0.00170011 0.0293759 0.0032669)
(0.00095462 0.00874129 0.000303718)
(-0.00323593 0.0567292 0.0125985)
(0.00144333 0.0519954 0.00416876)
(0.00054055 0.0264862 0.00193822)
(0.000577589 0.00781643 0.000715551)
(-0.0297943 0.101656 0.0139887)
(-0.00599984 0.0608898 0.00477663)
(-0.0024407 0.0299556 0.00176233)
(0.00112972 0.00831664 0.000248194)
(-0.0106368 0.0607888 0.00834503)
(-0.00144042 0.0554629 0.00328967)
(-0.000279315 0.0281309 0.00129257)
(0.000268742 0.00818688 0.000562565)
(-0.0328537 0.10355 0.00721399)
(-0.00726895 0.0618984 0.00301874)
(-0.00281577 0.0304439 0.00139331)
(0.00101187 0.0084116 0.000549616)
(-0.0128696 0.0632902 0.00489148)
(-0.00240672 0.0565522 0.00231328)
(-0.000566513 0.0286674 0.00105307)
(0.000164267 0.00832537 0.000537525)
(0.000124827 0.00837174 4.70007e-05)
(4.08339e-05 0.00420365 2.91233e-05)
(1.36348e-05 0.00196635 1.25193e-05)
(4.78757e-06 0.000830778 4.88294e-06)
(2.10043e-06 0.000225409 2.23953e-06)
(0.000175831 0.00840845 3.7569e-05)
(6.01341e-05 0.00421447 1.672e-05)
(2.10341e-05 0.00197142 6.7795e-06)
(7.5964e-06 0.000832801 2.61075e-06)
(3.38666e-06 0.000225923 1.1944e-06)
(0.000297855 0.00848897 0.000133606)
(9.24279e-05 0.00425963 5.89748e-05)
(3.06214e-05 0.0019855 2.34269e-05)
(1.07621e-05 0.000837104 8.95522e-06)
(4.73179e-06 0.000226902 4.09515e-06)
(0.000364889 0.00862205 0.0001361)
(0.000126504 0.00428516 5.13258e-05)
(4.47955e-05 0.00199566 1.95777e-05)
(1.63176e-05 0.000841015 7.40516e-06)
(7.31953e-06 0.00022789 3.38091e-06)
(0.000386769 0.00878256 0.000203505)
(0.000113299 0.00433283 8.93338e-05)
(3.71436e-05 0.00200846 3.55172e-05)
(1.30586e-05 0.000844653 1.36357e-05)
(5.75402e-06 0.000228693 6.27047e-06)
(0.000457564 0.00892425 0.000353027)
(0.000161389 0.00435844 0.000150764)
(5.75275e-05 0.00202152 5.87014e-05)
(2.1069e-05 0.000850017 2.24089e-05)
(9.49078e-06 0.000230075 1.0308e-05)
(0.000207482 0.00893693 0.000333839)
(7.56416e-05 0.0044313 0.000155214)
(2.73112e-05 0.00205329 6.25174e-05)
(1.0115e-05 0.000861808 2.43738e-05)
(4.60088e-06 0.000233005 1.13835e-05)
(0.000151413 0.00908681 0.000437712)
(4.50164e-05 0.0045193 0.00018636)
(1.4888e-05 0.00209204 7.39517e-05)
(5.32498e-06 0.000876644 2.89441e-05)
(2.39085e-06 0.000236758 1.36384e-05)
(0.000339648 0.009064 0.000206596)
(0.000107887 0.00441779 0.000111534)
(3.63841e-05 0.00203955 4.60849e-05)
(1.29902e-05 0.000855597 1.80063e-05)
(5.78194e-06 0.000231362 8.37883e-06)
(0.000156041 0.00941958 0.000209478)
(4.43253e-05 0.00449142 0.000102721)
(1.43023e-05 0.00205892 4.1704e-05)
(5.01808e-06 0.000861342 1.62431e-05)
(2.21841e-06 0.00023267 7.56087e-06)
(0.000400689 0.00907632 0.000196243)
(0.000128638 0.00438818 9.77059e-05)
(4.43757e-05 0.0020247 3.93508e-05)
(1.60238e-05 0.000849812 1.51583e-05)
(7.1644e-06 0.000229902 6.9872e-06)
(0.00016023 0.0093934 0.000280332)
(4.62945e-05 0.00445666 0.000118402)
(1.51391e-05 0.00204341 4.50467e-05)
(5.33152e-06 0.000855558 1.69957e-05)
(2.355e-06 0.000231231 7.77056e-06)
(0.000248724 0.00910586 0.000221554)
(6.87461e-05 0.00447937 0.000119498)
(2.18585e-05 0.0020671 5.02244e-05)
(7.62884e-06 0.000865961 1.99169e-05)
(3.37017e-06 0.000233953 9.37825e-06)
(0.000145903 0.00958301 0.000251875)
(3.77647e-05 0.00454982 0.000113525)
(1.19037e-05 0.00208305 4.58911e-05)
(4.16939e-06 0.000870395 1.80099e-05)
(1.8505e-06 0.000234941 8.45674e-06)
(0.00022814 0.00931822 0.000345111)
(4.82944e-05 0.00456661 0.000147279)
(1.2823e-05 0.00210319 5.87477e-05)
(4.06432e-06 0.000879631 2.30899e-05)
(1.71183e-06 0.000237406 1.09141e-05)
(0.000124618 0.00980403 0.000289984)
(2.32609e-05 0.00462811 0.000120769)
(5.73681e-06 0.00211379 4.80611e-05)
(1.75563e-06 0.000881963 1.89214e-05)
(7.28372e-07 0.000237867 8.95956e-06)
(0.000106748 0.00842677 -7.30841e-07)
(3.27955e-05 0.00420191 2.01468e-05)
(1.06369e-05 0.00196237 9.62821e-06)
(3.67061e-06 0.000828943 3.81414e-06)
(1.59283e-06 0.00022493 1.75186e-06)
(8.81282e-05 0.00859898 -1.12939e-05)
(2.77576e-05 0.00420811 7.30464e-06)
(9.12038e-06 0.00196028 3.72352e-06)
(3.1558e-06 0.00082782 1.48009e-06)
(1.36785e-06 0.000224633 6.78575e-07)
(0.000273782 0.00854672 5.52973e-05)
(8.13077e-05 0.00424721 4.00039e-05)
(2.64662e-05 0.00197737 1.6676e-05)
(9.20676e-06 0.000833787 6.39715e-06)
(4.01906e-06 0.000226059 2.91645e-06)
(0.000234798 0.00870719 9.5183e-06)
(7.17729e-05 0.00424463 1.48011e-05)
(2.36275e-05 0.00197225 6.34488e-06)
(8.23393e-06 0.000831663 2.43023e-06)
(3.58975e-06 0.000225524 1.10409e-06)
(0.00036016 0.00880513 0.000110867)
(9.78951e-05 0.00432095 5.81737e-05)
(3.10651e-05 0.0019999 2.3323e-05)
(1.07396e-05 0.000841031 8.90804e-06)
(4.68487e-06 0.000227759 4.07406e-06)
(0.000315202 0.00894512 9.21346e-05)
(9.52889e-05 0.0043114 3.95806e-05)
(3.17333e-05 0.0019929 1.47651e-05)
(1.11939e-05 0.000838289 5.46719e-06)
(4.92416e-06 0.000227074 2.46308e-06)
(0.000340323 0.00912205 0.000254654)
(0.00010518 0.00439414 0.000104632)
(3.59809e-05 0.00202116 3.94759e-05)
(1.29324e-05 0.000847838 1.47803e-05)
(5.76216e-06 0.00022936 6.71618e-06)
(0.000221309 0.00921988 0.000178476)
(7.03602e-05 0.00438131 6.94635e-05)
(2.40718e-05 0.00201506 2.53837e-05)
(8.61947e-06 0.000845589 9.35788e-06)
(3.8249e-06 0.000228805 4.21628e-06)
(0.000170346 0.00939442 0.000374415)
(5.56614e-05 0.00443156 0.000135915)
(1.95146e-05 0.00203289 4.92617e-05)
(7.09615e-06 0.000851745 1.8174e-05)
(3.18291e-06 0.000230293 8.20886e-06)
(-0.00196543 0.669163 0.121204)
(-0.0120888 1.0464 0.277176)
(0.00350646 0.684634 0.127106)
(-0.0271126 1.04414 0.276748)
(0.0221954 0.702587 0.14373)
(-0.0293119 1.03353 0.276456)
(0.0592051 0.699865 0.167505)
(-0.0107363 1.00949 0.283838)
(0.0904387 0.643551 0.168325)
(0.0425192 0.936216 0.284759)
(-0.0122528 0.563504 0.0690596)
(-0.0443501 0.642657 0.100138)
(0.0624379 0.574518 0.111368)
(0.0553393 0.693999 0.169372)
(-0.0471624 0.561712 0.0362443)
(-0.0882829 0.627701 0.0492268)
(-0.0687478 0.570471 0.00941114)
(-0.106414 0.631853 0.0137351)
(-0.0421374 0.608975 0.632707)
(-0.0103158 0.105973 0.155215)
(-0.00245306 0.0232337 0.0369862)
(-0.000585929 0.00538512 0.00881698)
(-0.000168997 0.000984488 0.00248756)
(-0.0099337 0.678473 0.17465)
(-0.00592577 0.19658 0.0481793)
(-0.00085298 0.0488809 0.013219)
(-0.000259213 0.0114437 0.00319118)
(-0.000125824 0.00209066 0.000796747)
(-0.129365 0.605589 0.619473)
(-0.0314781 0.103835 0.151081)
(-0.00751352 0.0226703 0.0360383)
(-0.00178766 0.00524734 0.0085404)
(-0.000517027 0.000958268 0.0024316)
(-0.0225657 0.672726 0.178176)
(-0.00741254 0.193317 0.053501)
(-0.00206516 0.0480305 0.0136395)
(-0.000494976 0.0112181 0.00336169)
(-0.000161187 0.00203606 0.000937773)
(-0.215385 0.59418 0.581249)
(-0.0525507 0.101021 0.141345)
(-0.0126003 0.0219876 0.0337137)
(-0.00301464 0.00508989 0.00800712)
(-0.000872738 0.000930399 0.00229059)
(-0.038498 0.658424 0.172743)
(-0.01319 0.188425 0.051533)
(-0.00358551 0.0467916 0.0131031)
(-0.000940708 0.0109329 0.00321599)
(-0.000281642 0.00198709 0.000901115)
(-0.284768 0.568763 0.520179)
(-0.0698011 0.0951696 0.126039)
(-0.0168567 0.0206595 0.0301176)
(-0.00406063 0.00479717 0.00718139)
(-0.00118279 0.000879846 0.00206607)
(-0.0462667 0.63001 0.165923)
(-0.0169757 0.179815 0.0485241)
(-0.00472789 0.0447337 0.0122049)
(-0.00124784 0.0104849 0.00297528)
(-0.000372442 0.00191057 0.000831059)
(-0.349796 0.520995 0.424747)
(-0.0867768 0.0852914 0.102955)
(-0.0211785 0.0185904 0.0247449)
(-0.00515112 0.00435636 0.00594176)
(-0.00151594 0.000804468 0.00172331)
(-0.0535804 0.578891 0.15358)
(-0.0212444 0.166354 0.0439039)
(-0.00603047 0.0417211 0.0109645)
(-0.0016034 0.00985295 0.00266582)
(-0.000483486 0.00180471 0.000745396)
(-0.402781 0.44003 0.193276)
(-0.103425 0.0753897 0.0493442)
(-0.0257657 0.0171264 0.0121656)
(-0.00637407 0.00411857 0.00297159)
(-0.0019054 0.000772075 0.000874078)
(-0.0947449 0.449567 0.0736838)
(-0.0311803 0.137169 0.0214211)
(-0.00831756 0.0356833 0.00532345)
(-0.0021213 0.0086552 0.00127673)
(-0.000631314 0.00161368 0.00035781)
(-0.379413 0.465432 0.292974)
(-0.0969446 0.0782582 0.0735118)
(-0.0239704 0.0175032 0.0179154)
(-0.00588168 0.0041658 0.00433548)
(-0.00174372 0.000775965 0.0012661)
(-0.0687624 0.489463 0.109154)
(-0.0256312 0.148435 0.0313168)
(-0.00712459 0.0380905 0.00783904)
(-0.00186256 0.00912052 0.00190932)
(-0.000556338 0.00168475 0.000539066)
(-0.4125 0.429096 0.112003)
(-0.106168 0.0743309 0.0288852)
(-0.0265546 0.0169993 0.00717397)
(-0.00659822 0.00410792 0.00176634)
(-0.00198221 0.000772373 0.000522661)
(-0.110211 0.433854 0.0409096)
(-0.0346912 0.131782 0.012338)
(-0.00907574 0.0344109 0.00305265)
(-0.00227722 0.00840155 0.000731513)
(-0.000674899 0.00157536 0.00020682)
(-0.428851 0.425973 0.0378699)
(-0.109527 0.073526 0.00974692)
(-0.0274598 0.0168181 0.00243138)
(-0.00683015 0.00407056 0.000601825)
(-0.00205449 0.000765488 0.000178669)
(-0.115829 0.431725 0.0148832)
(-0.0364035 0.13034 0.00417059)
(-0.00957334 0.0339951 0.000967459)
(-0.00224765 0.00833171 0.000284793)
(-0.00069866 0.00156216 6.40262e-05)
(-0.0328039 1.5208 -0.0455754)
(-0.347862 2.24683 -0.0139328)
(-0.317603 2.17902 0.202799)
(-0.113647 1.46057 -0.0620008)
(0.0715122 0.813883 0.0327499)
(0.121085 0.86477 0.0350778)
(0.333192 1.20987 0.101099)
(0.493986 1.28371 0.130638)
(0.0575507 0.979614 0.0827937)