/*--------------------------------*- C++ -*----------------------------------*\
| =========                 |                                                 |
| \\      /  F ield         | OpenFOAM: The Open Source CFD Toolbox           |
|  \\    /   O peration     | Version:  2306                                  |
|   \\  /    A nd           | Website:  www.openfoam.com                      |
|    \\/     M anipulation  |                                                 |
\*---------------------------------------------------------------------------*/
FoamFile
{
    version     2.0;
    format      ascii;
    arch        "LSB;label=32;scalar=64";
    class       volScalarField;
    location    "0.7";
    object      gradTz;
}
// * * * * * * * * * * * * * * * * * * * * * * * * * * * * * * * * * * * * * //

dimensions      [0 -1 0 1 0 0 0];

internalField   nonuniform List<scalar> 
5712
(
9304.63
30410.2
7467.96
31120.4
5492.63
31807.7
8425.75
47777.4
10311.7
65343.3
10387.7
48351
10168.3
40554.4
10587.1
36477.4
6372.31
4099.85
17158.7
10327.9
6101.52
3296.93
18199.7
8972.99
7271.21
5563.11
23182.8
17066.7
5503.82
4256.44
22755.3
17254.9
12985
5579.52
11328
5168.65
5464.41
12447.1
42600.3
11293.2
15297.2
4751.55
53557
14162.9
13808.6
4244.58
31208.8
9523.03
16003
5322.57
27822.9
8725.66
9924.66
4920.57
12809.2
5144.88
10772.4
5782.34
12404.7
4931.82
13106.8
7588.81
10650.6
4817.99
14983.9
5540.73
5046.93
1807.79
16826.4
11949.6
9989.04
7353.21
17038.8
13954.5
9075.92
7671.38
10164
7161.15
15230.9
10691.6
6251.3
4559.49
2742.28
2226.03
5531.47
4656.84
2370.79
2322.57
6446.43
4333.05
2945.85
1864.68
9588.39
5396.26
7549.83
8990.41
13778.3
9980.97
11469.9
15757.6
6040.25
2984.78
4244.52
5002.73
2735.44
1201.09
1616.58
1753.16
14141.8
24989.3
9389.05
27712.1
16181.7
24218.4
11370.7
28620.5
17845.3
21519.3
14257.9
27303.7
17351.8
18352
15075.1
15102.8
16230.3
18345.4
19371.8
21235.9
23079.3
32760.9
15026.5
13373.4
12917.6
14922.2
22551.2
29226.5
26282.4
33670.8
32718.5
26707
24864.2
32972.6
31787.8
22890.2
22488.1
30531.7
30296.5
13616.6
10989.6
14919.8
13553.3
17540.3
16666.2
20030.2
20019.8
27401.1
28797.3
12539.7
11441.8
13741.3
14515.2
15479
17826.2
18166.6
21700.5
23701
28709.8
10970.2
8558.91
7129.63
8604.47
13155.7
15023.6
8736.08
13171.6
6702.13
8241.51
10490.7
8673.84
1819.56
5468.69
535.864
1678.37
4203.4
8503.72
1161.64
2635.5
1266.39
5063.98
303.464
1533.59
7006.69
6871.2
8211.01
5318.63
11485.1
9347.32
13731
9833.08
1997.7
3659.04
4052.44
2427.33
1874.76
2362.08
2694.75
2001.84
21230.6
13003.2
4187.81
23854.3
13848.7
4556.99
20371.8
12840.6
4413.33
23286.9
13802.9
4544.66
18600.7
11768.3
3903.55
22440.1
13707
4582.98
7870.06
4776.87
1476.58
11351.7
7590.85
2586.97
14541.5
9915.47
3403.73
17534.2
11470.7
3827.35
21995.9
13887.6
4795.02
8877.42
5511.53
1934.48
11403.2
8297.85
3165.41
14406.7
10540.1
3921.93
17954.6
12602
4554.69
22317.3
14202.6
5081.34
242.58
2029.9
2780.16
4109.65
2546.01
2798.75
6255.09
5821.73
570.904
873.983
608.424
907.726
388.417
1208.6
747.638
1598.88
2786.45
1404.72
3726.5
2221.43
1862.99
3125.71
3241.18
55.7042
6789.03
984.464
-2909.14
-560.021
1149.39
310.9
351.671
-168.339
8314.25
3277.79
2218.12
1202.67
8470.64
3369.61
2797.77
1495.68
8431.21
3574.22
3874.55
2287.23
2497.07
1497.97
475.195
532.277
13041.2
11220.9
5880.93
5907.44
15344.1
14030.2
7353.98
7165.77
4667.42
4652.06
10252.1
8151.84
3139.14
3298.86
1238.93
1671.6
4193.07
4092.63
1789.53
2060.31
2336.45
2624.71
802.827
1412.29
3695.64
2081.78
3522.74
1964.12
6148.26
2871.14
5501.73
2842.88
1850.94
1322.18
2042.69
1140.73
560.666
555.288
1093.62
527.889
9402.25
5504.55
4027.79
3482.06
9457.36
5829.53
4022.78
3480.85
10120.3
6499.88
4084.76
3474.16
14314.5
16955.9
11851.9
7056.69
3154.83
15931.8
13254.1
11023.3
8030.62
3996.98
14829.8
12134.1
8734.03
5884.31
2841.6
3745.62
2692.13
2996.94
2752.9
4158.3
2889.68
3146.89
2848.84
4884.5
3385
3385.93
3042.21
11878.3
8457.62
9794.05
6612.59
6779.55
5068
5428.13
4105.83
3298.86
3209.62
9929.25
8589.36
7829.84
6574.18
5861.47
4949.18
4324.3
3819.19
2523.77
3027.08
6957.84
4703.64
4453.93
2808.69
10038.1
7623.39
6706.51
5467.81
3194.84
1945.31
4807.14
3396.94
4152
1984.4
1167.53
615.893
4849.17
3542.76
1303.45
1097.99
3207.83
1389.48
971.788
448.902
2142.85
1767.03
1365.75
1802.57
3128.58
2600.27
1783.21
2285.43
2165.26
1215.43
982.856
1221.56
436.595
162.636
-183.218
67.2275
1677.86
705.497
204.768
1690.42
475.853
127.755
1862.67
828.83
251.798
1780.7
528.167
148.03
2093.11
989.842
275.042
1913.43
595.246
152.453
5522.35
3108.81
880.873
4065.69
2133.91
607.686
3185.15
1607.74
475.076
2505.12
1194.65
311.248
2048.47
637.081
132.556
6472.17
3543.86
1113.86
4821.56
2479.97
750.591
3622.54
1816.27
548.503
2742.73
1244.02
344.854
2237.38
622.298
162.591
1079
333.768
83.6156
-2.83449
446.662
142.112
39.7852
4.52321
1119.57
352.143
96.5383
8.65732
538.236
177.804
71.4783
27.3069
1166.75
372.738
123.769
31.5907
828.767
290.158
75.0941
11.5997
499.323
200.962
18.7878
-20.0889
306.72
152.914
48.3011
16.1361
857.005
296.859
66.1279
-21.8326
681.998
229.586
80.0788
-10.8566
1091.32
351.762
107.214
7.66072
925.726
293.805
103.662
-17.2445
584.951
221.812
55.3176
-8.35505
453.235
165.363
65.0986
5.42104
305.712
136.069
50.1735
19.4532
227.357
98.4854
46.6277
18.2263
1328.71
405.865
103.115
-16.1629
1223.03
367.877
131.842
-19.0911
1314.98
403.051
104.257
-16.1109
1186.73
355.354
130.817
-19.7128
1273
391.551
124.551
1.81179
1116.63
332.025
139.686
-7.81696
1085.29
341.787
135.625
36.3103
1214.97
359.806
175.364
-5.15709
923.651
288.015
122.587
10.861
885.826
250.459
105.794
-3.01791
334.289
89.2606
30.46
5.15792
933.087
265.266
109.958
-1.86029
356.378
95.9955
34.1891
7.55633
978.3
279.995
120.19
2.39438
377.047
103.02
37.8184
9.91932
896.938
259.031
126.226
7.59543
377.232
104.453
44.9674
13.7389
817.51
244.377
121.046
14.0544
344.097
103.72
52.0092
17.6974
501.097
156.113
58.6465
4.6316
282.315
100.832
41.95
16.3255
628.428
185.984
81.6726
7.59296
314.963
104.219
48.4556
17.8888
349.718
119.416
44.0582
6.20486
208.626
82.2418
32.3144
14.0641
180.35
75.4685
34.8327
13.7404
122.287
57.832
26.3267
13.4381
1.17502
0.728081
0.312983
0.122074
0.0559884
0.939225
0.417999
0.169488
0.0652689
0.0298599
3.34014
1.47437
0.585672
0.223881
0.102379
3.40251
1.28314
0.489443
0.185129
0.0845227
5.08764
2.23335
0.887931
0.340892
0.156762
8.82568
3.7691
1.46753
0.560222
0.257699
8.34597
3.88034
1.56293
0.609346
0.284587
10.9428
4.65901
1.84879
0.723602
0.34096
5.1649
2.78835
1.15212
0.450157
0.209471
5.23695
2.56804
1.0426
0.406078
0.189022
4.90608
2.44265
0.983771
0.378957
0.17468
7.0083
2.96006
1.12617
0.424893
0.194264
5.53884
2.98746
1.25561
0.497921
0.234456
6.29688
2.83812
1.14728
0.450247
0.211419
8.62778
3.68197
1.46869
0.577248
0.272851
7.24959
3.01922
1.20153
0.473035
0.223989
-0.018271
0.503669
0.240705
0.0953535
0.0437966
-0.282348
0.182616
0.0930879
0.0370022
0.0169644
1.38243
1.0001
0.416899
0.159929
0.0729113
0.237957
0.370029
0.158622
0.0607557
0.0276022
2.77167
1.45434
0.583075
0.222701
0.101852
2.30337
0.989514
0.369127
0.13668
0.061577
6.36636
2.61579
0.986898
0.369507
0.167904
4.46191
1.73659
0.634591
0.233947
0.105407
9.36037
3.39787
1.23154
0.45435
0.205222
3030.09
6929.39
3177.65
6918.71
3593.25
6911.39
4187.62
7095.96
4208.12
7118.98
1726.49
2503.45
2784.21
4234.31
906.107
1230.67
235.278
343.377
15817.7
3880.38
924.654
220.424
62.189
4366.25
1204.48
330.475
79.7795
19.9187
15486.8
3777.03
900.957
213.51
60.79
4454.41
1337.52
340.987
84.0422
23.4443
14531.2
3533.62
842.843
200.178
57.2647
4318.58
1288.33
327.579
80.3997
22.5279
13004.5
3150.98
752.94
179.535
51.6517
4148.08
1213.1
305.121
74.3819
20.7765
10618.7
2573.87
618.623
148.544
43.0828
3839.51
1097.6
274.112
66.6454
18.6349
4831.9
1233.61
304.14
74.2897
21.852
1842.1
535.528
133.086
31.9182
8.94524
7324.35
1837.79
447.886
108.387
31.6526
2728.84
782.919
195.976
47.733
13.4766
2800.07
722.129
179.349
44.1584
13.0665
1022.74
308.45
76.3162
18.2878
5.17051
946.749
243.673
60.7844
15.0456
4.46672
372.08
104.265
24.1865
7.11982
1.60065
-1139.39
-348.32
5069.97
-1550.02
818.748
876.945
2527.47
3265.94
2069.84
3943.24
3488.86
5398.6
4387.53
5432.04
2226.45
2983.4
2290.64
2722.23
1186.66
1233.81
2014.94
1250.6
615.274
49.7046
-100.727
-114.935
204.496
14249
4860.48
5132.84
3959.82
750.612
733.846
3319.05
-50.3822
249.045
86.7549
-36.3759
7664.9
4208.55
2075.7
1395.93
3350.57
2062.02
764.928
1292.35
-329.659
38.8927
1029.24
894.361
8553.51
3719.73
5374.27
2597.69
3346.19
4857.01
1519.59
4.11612
1268.55
1239.91
870.757
647.502
493.4
308.581
896.18
648.316
452.403
285.561
112.056
525.565
418.278
299.962
180.006
60.1628
43.3577
35.2687
25.7961
15.6869
5.25863
-89.088
-73.2391
-53.6474
-32.3835
-10.7792
-101.739
-83.7398
-61.4353
-37.1446
-12.3753
177.579
144.239
105.677
64.5394
21.7786
9347
6957.84
4958.47
3545.35
2440.54
3639.01
2636.28
1947.77
1283.33
551.056
3717.59
2693.89
1911.37
1216.22
505.226
2794.14
1920.75
1348.68
844.305
308.397
580.227
393.308
297.915
192.829
71.6532
644.045
528.598
392.675
244.668
84.9004
2618.3
1967.66
1363.88
825.518
297.587
92.9024
157.434
149.24
106.976
40.2601
222.738
189.508
147.36
95.8557
34.2743
136.2
153.322
138.405
96.9168
35.6004
-43.2558
-40.9174
-31.0434
-18.1123
-5.59925
5113.12
3952.86
2874.46
2094.1
1450.78
3081.78
2241.18
1600.96
1014.7
406.696
1739.18
1373.02
990.942
608.028
211.987
1160.37
907.796
648.849
394.099
135.656
2673.07
2019.4
1407.14
846.405
297.032
1730.9
1362.81
976.849
592.465
201.399
640.14
502.902
359.633
217.457
73.8984
1094.47
865.293
618.766
371.931
124.961
-277.064
-214.576
-147.998
-84.9885
-27.3844
31.3458
24.6241
18.7761
12.5867
4.64907
865.749
681.513
487.269
294.285
99.8648
758.573
601.763
432.527
261.517
88.366
5128.97
3333.84
2426.7
1769.87
1176.17
2655.97
1893.34
1305.46
815.712
321.529
3681.82
2712.37
1904.71
1236.19
508.449
1953.42
1459.64
1020.84
633.986
241.574
2708.91
2072.76
1458.86
881.098
304.897
3543.08
2489.34
1752.3
1099.13
403.129
1277.09
1003.2
714.592
429.285
144.625
0.388842
-1.40405
-1.08131
-0.0121991
0.274095
1060.36
832.189
595.478
361.11
123.176
-38771.2
-61766.4
-32379.5
-49846.5
-33706.7
-67708.1
-40117.6
-86137.2
-24963.5
-17489.4
-27216.6
-17514.2
-22601.5
-14843.9
-27103.1
-14908.4
-33078.3
-25753
-46941.5
-34785.5
-28550.1
-23530.8
-39003.4
-30103.7
-22390.8
-23558
-18642.7
-18536.8
-22650.1
-20606.4
-50944.4
-14124.2
-20157.7
-7787.05
-60899.2
-17152
-17909.4
-7104.77
-38847.6
-12259.4
-20707.3
-8126.68
-35219.3
-10863.2
-18045.1
-7396.29
-22272.2
-8184.83
-17253.5
-7742
-19300.5
-7117.26
-17778.2
-8918.33
-15432.8
-6282.52
-19163.7
-6898.75
-6706.44
-2397.53
-14657.5
-10492.9
-12618.1
-8182.1
-12489
-10373.8
-10837.8
-7917.86
-13139.4
-8141.09
-15634.6
-10676.8
-8736.63
-5579.85
-4834.62
-3250.84
-7511.25
-5358.19
-4160.13
-3140.37
-8998.39
-5359.16
-5003.73
-2849.85
-11852.7
-6163.04
-8293.24
-9286.03
-15305.3
-10518
-11846.9
-15854.9
-7962.67
-3646.55
-5003.56
-5312.06
-4271.16
-1753.86
-2337.49
-2044.37
-18529.2
-23331.9
-10700.6
-26911.9
-19256
-22231.9
-12323.4
-27462.3
-19388.9
-20037.9
-14678
-25976.5
-12612.9
-9994.11
-14442.1
-16358.4
-16552.4
-13342.1
-16142.9
-19533.3
-21879
-31285.9
-9618.18
-10636.1
-12003.9
-14584.3
-22043.1
-22603.1
-15891.6
-29035.7
-22589.6
-20944.2
-15593.2
-28611.4
-22537.4
-18461.1
-14686.9
-26714.8
-22385
-10835.1
-8662.29
-12247.2
-10070.5
-14163.6
-11939.3
-16196.2
-14199
-24241.8
-22534.9
-9860.99
-8854.4
-11046
-10589.6
-12886.5
-13142.8
-15811.1
-16660.4
-21817.9
-23364.6
-9433.33
-7459.46
-6904.84
-8214.2
-10565
-13138.1
-7961.66
-12104.8
-6809.73
-8145.28
-9750.07
-7938.58
-2126.2
-5509.21
-1010.59
-1920.88
-4219.27
-8223.62
-1447.79
-2666.64
-1683.16
-5250.54
-834.437
-1845.85
-7189.73
-6845.07
-8326.88
-5243.46
-11131.1
-8739.16
-13491.8
-9149.56
-2357.18
-3847.16
-4272.93
-2537.04
-2318.24
-2646.07
-2967.92
-2193.86
-9760.68
-3354.24
-13313.2
-4514
-9978.44
-3519.53
-13630.8
-4857.33
-9920.51
-3464.63
-14318.9
-5424.23
-5352.42
-1663.37
-7086.26
-2628.84
-8492.63
-3219.52
-10532.2
-3903.62
-15189.8
-5934.66
-6342.67
-2139.07
-7251.76
-3252.41
-9157.55
-3996.88
-12050.8
-5003.99
-16065.5
-6022.79
-8652.01
-7965.03
-7020.64
-6688.49
-14423.8
-11095.5
-12031.3
-9950.19
-5451.13
-4151.36
-2303.06
-1522.49
-5328.72
-4544.2
-2334.72
-2133.34
-4570.39
-6143.68
-5096.63
-6512.02
-4840.72
-3778.98
-5199.27
-1943.73
-9693.02
-3422.75
1309.57
-1160.05
-2387.44
-1700.26
-1103.69
-911.995
-2515.49
-1347.5
-1008.76
-481.217
-2806.93
-1480.97
-1593.55
-671.297
-3314.61
-1804.49
-2636.07
-1215.91
-2265.06
-842.124
-714.023
-43.1841
-6766.53
-6881.32
-5565.42
-4919.8
-9453.56
-9253.7
-8054.25
-6675.94
-3648.53
-3514.22
-4804.12
-4961.4
-3794.97
-3143.37
-2128.87
-1814.03
-5506.51
-4335.12
-3151.01
-2541.99
-2416.15
-2211.6
-1226.03
-1284.16
-2267.58
-1194.15
-2523.61
-1350.69
-2931.88
-1614.53
-3526.9
-1947.84
-1392.41
-751.124
-1550.89
-725.762
-485.357
-143.941
-819.881
-211.766
-3243.46
-3485.5
-2006.33
-2420.97
-3342.03
-3666.92
-2059.69
-2427.57
-3739.47
-3716.68
-2205.4
-2363.04
-4529.2
-7133.95
-3510.17
-2453.37
-1551.77
-10065.6
-6933.21
-5506.75
-4352.26
-2778.06
-8089.29
-6249.77
-4609.34
-3434.12
-1827.68
-3466.94
-2947.5
-3056.09
-4190.33
-3543.58
-2893.5
-3007.6
-4079.5
-3690.52
-3131.08
-2890.7
-3906
-9147.97
-6984.44
-7425.76
-5522.65
-5555.38
-4200.62
-4377.83
-3559.35
-2789.97
-3654.35
-7337.97
-6764.71
-5559.13
-5203.97
-4145.2
-3916.32
-3197.67
-3217.24
-1856.38
-3051.72
-4601.1
-3323.11
-3383.4
-1832.21
-7161.5
-6000.46
-5599.81
-4367.73
-2295.85
-1144.19
-3140.87
-2333.02
-3727.17
-1554.62
-1053.26
-412.322
-4571.38
-3137.48
-1369.2
-966.684
-2754.3
-1001.12
-748.054
-228.757
-1509.25
-1237.41
-1017.43
-1566.35
-2113.04
-1918.33
-1317.86
-2052.8
-1770.47
-922.104
-707.46
-1045.53
-171.832
37.4291
413.847
86.1653
-1973.43
-604.039
-2697.62
-256.024
-2004.93
-693.063
-2684.67
-279.29
-1918.56
-580.274
-2499.01
-205.882
-4074.45
-1142.14
-3253.22
-929.933
-2752.12
-889.684
-2110.75
-523.675
-2376.33
-300.858
-4899.52
-1276.52
-3740.88
-837.254
-2926.22
-671.076
-2356.23
-427.949
-2473.81
-341.492
-546.152
-171.846
-28.0543
26.8914
-211.938
-66.9234
-14.8549
4.89999
-573.648
-176.035
-33.7902
18.4295
-228.4
-66.3269
-33.1104
-13.3099
-625.286
-183.886
-52.9447
-0.961085
-329.491
-78.983
15.0791
28.8708
-68.6741
11.747
80.3203
65.1853
139.978
91.0063
66.5934
34.9799
-449.258
-119.349
14.7693
61.8184
-357.383
-76.922
-8.76623
48.7941
-645.178
-180.023
-35.7263
27.4297
-523.554
-123.873
-28.4073
60.5286
-232.953
-46.0619
27.0256
47.1372
-190.004
-28.2712
2.85737
30.0634
16.8305
40.0726
36.3497
21.6617
4.41131
30.4045
20.0672
16.891
-751.867
-226.96
-38.156
49.1226
-817.739
-224.514
-85.4834
53.4276
-742.012
-219.185
-35.6171
51.1835
-796.609
-215.598
-84.5072
54.0992
-721.666
-205.599
-56.9132
31.4145
-747.607
-198.592
-95.7516
41.6054
-548.083
-147.352
-61.1427
0.362699
-804.173
-205.042
-120.335
47.5821
-506.923
-120.075
-50.0009
34.0126
-679.697
-157.829
-75.8577
28.2634
-279.284
-57.6182
-16.2813
3.4808
-659.698
-152.144
-73.2333
29.0904
-274.383
-56.1968
-17.1818
2.31208
-610.183
-138.125
-76.267
26.4278
-250.97
-50.1279
-15.7044
2.4915
-537.712
-120.746
-83.6316
19.8732
-224.034
-43.7279
-19.9638
0.569249
-453.723
-98.0305
-70.9568
14.3742
-158.254
-28.0907
-21.5264
-0.527202
-286.567
-50.4065
-8.0003
25.9265
-77.2246
-1.43857
3.21344
8.73241
-384.507
-78.0619
-35.2447
21.0888
-102.329
-11.3792
-8.85818
4.05236
-154.777
-14.2564
9.12792
25.0754
-33.6265
12.6437
13.9942
11.9446
0.0242053
27.8275
18.5655
17.3055
31.8284
32.54
19.2809
12.3359
4.6448
0.953794
0.236358
0.0749684
0.0334781
1.74235
0.426249
0.117283
0.0393224
0.0179662
4.74059
1.22634
0.375028
0.135254
0.0637815
2.21271
0.806709
0.289637
0.111931
0.0540939
5.89299
1.72284
0.577593
0.217676
0.104055
7.04876
2.46845
0.929929
0.367686
0.178484
9.03858
3.18277
1.20091
0.47068
0.225836
10.3437
4.16253
1.64167
0.64879
0.309916
8.42929
2.43026
0.844153
0.322467
0.154091
7.13757
2.15513
0.763387
0.293549
0.140519
7.03509
1.91673
0.649879
0.247455
0.118694
5.712
1.77738
0.666881
0.26559
0.129714
9.29715
2.943
1.05348
0.403596
0.191739
7.03404
2.48599
0.928239
0.361166
0.172586
8.53672
3.41918
1.34152
0.528709
0.252172
6.93544
2.81797
1.10752
0.436338
0.208066
5.72942
0.922387
0.199428
0.0590527
0.0256698
2.81105
0.389111
0.0781171
0.0225052
0.0097148
5.67074
1.0487
0.275161
0.0935233
0.0433154
2.7757
0.428253
0.103694
0.0344074
0.0158628
5.4094
1.20436
0.367594
0.134635
0.0639798
2.41399
0.560884
0.189577
0.0737989
0.0361052
5.39152
1.51738
0.542765
0.213537
0.104204
2.90023
0.829926
0.313037
0.126578
0.0626172
3.92413
1.51382
0.617592
0.254997
0.126694
-2805.82
-5635.53
-2976.13
-5709.72
-3390.47
-5852.81
-3848.72
-6102.2
-3790.85
-6168.05
-1719.99
-2427.45
-2602.25
-3868.08
-1001.93
-1287.1
-382.987
-459.36
-15468.2
-3819.79
-916.201
-219.698
-62.3009
-4221.18
-1184.44
-327.252
-79.4692
-19.9601
-15140.5
-3717.84
-892.785
-212.839
-60.9031
-4309.99
-1313.79
-337.535
-83.6933
-23.4693
-14199.8
-3479.03
-835.533
-199.616
-57.3783
-4176.45
-1264.41
-324.096
-80.0547
-22.5514
-12722.7
-3107.06
-747.391
-179.185
-51.7726
-4002.23
-1189.04
-301.732
-74.0563
-20.7987
-10442.2
-2547.99
-615.72
-148.49
-43.2104
-3699.74
-1076.07
-271.265
-66.4034
-18.6646
-4840.86
-1235.7
-304.925
-74.5673
-21.9529
-1815.32
-531.249
-132.751
-31.9912
-9.00159
-7276.44
-1830.67
-447.463
-108.571
-31.7723
-2645.28
-770.066
-194.389
-47.6419
-13.5162
-2824.09
-726.77
-180.412
-44.4253
-13.1457
-1036.36
-311.58
-77.183
-18.5389
-5.25162
-971.939
-248.327
-61.7738
-15.2723
-4.52907
-406.516
-111.667
-25.8021
-7.49301
-1.70051
-1468.27
-2810.19
-8409.17
-820.383
-8976.35
-3983.66
-8767.12
-4207.39
-15973.3
-8535.28
-17738.1
-9306.66
-26.0868
-80.3833
-127.762
-153.549
-118.096
74.9866
-48.4661
-149.744
-240.438
-292.404
-248.645
-22.1307
-18.7846
-17.6725
-55.9837
-54.0087
-80.4411
-82.8401
-69.0206
-81.9797
-38.6437
-78.1048
41.1473
-33.7147
607.363
1394.9
2377.42
1692.11
1478.31
570.177
471.471
1255.63
2154.03
2609.27
2183.65
874.465
-23.2189
-19.3043
-14.3686
-8.82037
-2.96955
-71.571
-59.5335
-44.3383
-27.2325
-9.17139
-113.656
-94.4416
-70.2637
-43.1214
-14.5162
-136.484
-113.302
-84.2138
-51.6431
-17.3775
-105.306
-87.7339
-65.4247
-40.2128
-13.546
63.4042
49.6329
34.8573
20.5108
6.76521
-43.0394
-35.6841
-26.4855
-16.2222
-5.45483
-132.974
-110.256
-81.8495
-50.1445
-16.8645
-213.131
-176.35
-130.649
-79.9191
-26.8571
-258.52
-213.261
-157.537
-96.1607
-32.2804
-219.29
-180.401
-132.924
-80.9923
-27.1659
-20.7148
-18.149
-14.1227
-8.92341
-3.04312
-16.7505
-13.9585
-10.4146
-6.40549
-2.1588
-15.7753
-13.163
-9.83443
-6.05541
-2.04207
-49.9325
-41.6229
-31.0671
-19.1147
-6.44346
-48.197
-40.2024
-30.0269
-18.4844
-6.2328
-71.7099
-59.7395
-44.5609
-27.4028
-9.23459
-73.8209
-61.4683
-45.8266
-28.1691
-9.49064
-61.6742
-51.52
-38.53
-23.7391
-8.0074
-72.9742
-60.6791
-45.1706
-27.7312
-9.33647
-35.0965
-29.8437
-22.6756
-14.1227
-4.78787
-69.4247
-57.6124
-42.7875
-26.213
-8.81431
34.2729
26.3497
18.1854
10.571
3.46837
-30.4369
-25.661
-19.301
-11.9107
-4.0152
523.995
420.843
303.588
182.453
60.8666
1191.23
947.968
679.653
407.683
136.237
1991.59
1560.56
1109.15
665.181
224.047
1399.22
1087.85
772.641
464.982
157.073
1250.3
974.327
688.015
408.607
130.715
501.25
398.122
284.753
169.671
52.6154
406.722
326.598
235.548
141.526
47.202
1075.76
858.404
616.459
369.857
123.456
1825.8
1443.14
1030.06
616.994
206.383
2187.72
1713.54
1216.76
728.333
244.324
1827.52
1426.97
1010.74
604.104
201.874
736.394
578.251
411.975
247.374
82.662
29.8475
85.1909
134.756
164.229
134.778
-46.3411
54.6991
157.398
250.438
304.56
261.685
35.9029
21.3669
19.7253
59.431
57.0685
85.5176
87.7732
76.2966
88.5126
52.2517
78.4455
-3.49649
48.2213
-560.868
-1324.34
-2264
-1575.55
-1387.75
-501.242
-453.746
-1228.94
-2107.25
-2546.16
-2115.31
-806.071
26.6438
22.2344
16.617
10.2357
3.45283
75.9493
63.2793
47.2123
29.0415
9.78906
120.023
99.8862
74.4387
45.7479
15.4127
146.195
121.592
90.5601
55.6298
18.7372
120.436
100.609
75.247
46.3656
15.6411
-37.609
-27.8724
-18.4084
-10.2838
-3.29729
48.7247
40.5576
30.2323
18.5843
6.26209
139.963
116.254
86.466
53.0576
17.8605
222.275
184.21
136.708
83.7472
28.1669
269.65
222.843
164.934
100.838
33.8816
231.218
190.656
140.829
85.9852
28.8739
33.1736
28.7178
22.158
13.9427
4.74959
19.0995
15.9654
11.9523
7.37233
2.48873
17.6415
14.7562
11.0543
6.82192
2.30355
53.0671
44.2997
33.1171
20.403
6.88298
50.978
42.5759
31.8435
19.6256
6.62202
76.321
63.6719
47.568
29.2904
9.87809
78.3024
65.2909
48.7503
30.0046
10.1165
68.2632
57.1182
42.7944
26.4074
8.91544
78.9039
65.7312
49.0301
30.1518
10.1613
47.4013
40.2783
30.6076
19.0776
6.47249
69.9696
58.3161
43.5092
26.7565
9.01636
-0.451373
2.09746
3.25528
2.73028
1.03726
43.61
36.8846
27.8717
17.2835
5.84582
-482.509
-386.233
-277.731
-166.534
-55.5001
-1128.53
-895.884
-640.913
-383.935
-128.261
-1889.73
-1474.76
-1044.44
-625.118
-210.547
-1286.7
-986.149
-690.814
-411.585
-138.333
-1155.46
-883.143
-610.764
-355.966
-111.507
-423.556
-319.074
-214.9
-120.657
-34.492
-391.004
-313.583
-225.9
-135.626
-45.2212
-1052.28
-839.124
-602.299
-361.272
-120.592
-1783.76
-1407.71
-1003.32
-600.415
-200.78
-2128.42
-1661.1
-1175.31
-701.654
-235.084
-1759.79
-1364.07
-958.81
-569.512
-189.611
-666.101
-510.801
-354.797
-208.556
-68.7663
-1942.19
-1173.7
-504.307
35.9376
204.969
256.756
-47.8717
-12276.8
-3020.34
-3954.46
-1848.62
-279.429
-3357.23
136.693
1240.37
417.596
-6788.19
-3396.78
-1293.91
-1007.1
-3068.26
-1628.36
-596.021
-1071.99
771.594
261.695
-743.641
-594.421
-8230.09
-3567.01
-4870.57
-2333.94
-3081.27
-4158.61
-1278.9
246.222
-921.972
-1101.8
-711.735
-496.165
-379.877
-261.235
-796.059
-539.74
-352.457
-212.937
-83.9103
-426.235
-335.082
-237.549
-141.454
-47.1449
34.0263
30.2488
23.8944
15.2872
5.26047
182.642
151.829
112.801
69.0445
23.1911
228.424
189.606
140.73
86.1091
28.9213
-36.269
-24.8753
-15.4117
-8.42881
-2.75885
-7985.2
-6014.57
-4364.13
-3298.95
-2541.1
-2018.22
-1292.1
-966.234
-700.106
-355.905
-2745.3
-1909.64
-1345.64
-882.336
-401.728
-1204.25
-755.455
-542.687
-363.054
-137.918
-221.305
-166.007
-116.993
-73.0061
-26.7307
-2641.31
-1990.1
-1381.4
-838.253
-303.627
134.38
117.106
86.8492
50.9527
15.8255
1033.74
802.851
562.979
331.81
109.555
369.187
302.012
219.834
131.996
43.6746
-4329.59
-3336.32
-2442.22
-1863.99
-1428.51
-2357.06
-1633.33
-1147.79
-739.596
-318.151
-1040.11
-790.863
-557.672
-342.633
-123.208
-814.177
-619.888
-434.615
-262.859
-91.7335
-2443.73
-1845.54
-1288.98
-779.939
-276.757
-1334.69
-1024.93
-719.923
-432.41
-147.086
-486.945
-372.639
-260.514
-155.6
-52.919
-898.232
-702.053
-497.259
-297.419
-99.9306
670.693
542.15
392.386
235.565
78.2423
236.522
198.575
147.936
90.1629
30.0432
-611.035
-470.008
-330.308
-198.222
-67.6393
-490.825
-378.552
-266.009
-159.16
-53.92
-4823.67
-3060.62
-2208.99
-1635.53
-1145.45
-2504.62
-1752.7
-1189.67
-738.951
-294.406
-3178.04
-2269.13
-1554.38
-1012.78
-424.844
-1702.1
-1234.89
-842.587
-519.436
-202.436
-2470.48
-1871.64
-1307.51
-787.792
-273.618
-2920.75
-1959.26
-1354.32
-855.614
-322.825
-1062.53
-824.308
-581.073
-347.243
-117.053
223.233
188.235
140.955
86.3378
28.8833
-748.287
-569.493
-397.782
-238.876
-81.9474
-16.269
-39.3041
-66.2257
-114.99
-205.654
-348.427
-28246.7
-25087.4
-23281.6
-26423.3
-20958.5
-16744.9
-18404.3
-14077.9
-25392.8
-22934.6
-23483.4
-22641.3
-20778.1
-17891.6
-22054.9
-23738.6
-21366.5
-19109
-21427.2
-18120.4
-15377.1
-15742.7
-12660.5
-23236.7
-21383.9
-21513.9
-20217.5
-18799.5
-17448.4
-18555.6
-19123.1
-17625.8
-15411.7
-16801
-15410.5
-13338.2
-13333.7
-11391.9
-19850.5
-18892.6
-18542.7
-17726.2
-16263.7
-14990
-16108.3
-13801.4
-13034.1
-11119.6
-11784.6
-11759.9
-10591.5
-10076.6
-9082.26
-14876.1
-15290.4
-14075.2
-14489.7
-12663.7
-11520.4
-12986.7
-9016.35
-8638.11
-7251.8
-7574.17
-7985.87
-7252.64
-6727.63
-6144.08
-9997.67
-10176.8
-9556.49
-9621.57
-8760.74
-7962.95
-8781.69
-3279.48
-3166.2
-2639.95
-2738.13
-2967.59
-2756.56
-2479.33
-2288.94
-3747.59
-3840.68
-3545.07
-3501.96
-3291.56
-3022.43
-3294.31
-10206.8
-9993.31
-15586.3
-16804.4
-9478.1
-8373.71
-13656
-11079.8
-7268.4
-4909.89
-7263.38
-5028.74
-7241.54
-7037.06
-5282.86
-10097.1
-9568.78
-14004.4
-15241.7
-8855.74
-7948.64
-12189.6
-10376.6
-7217.72
-4115.2
-7120.9
-4424.5
-6513.2
-6350.48
-4949.6
-9094.21
-8634.15
-11913.8
-12780.2
-8047.45
-7379.11
-10623.1
-9273.98
-5878.87
-3971.07
-5851.25
-4316.61
-5403.68
-5452.38
-4664.38
-7162.81
-6850.08
-8936.16
-9415.42
-6438.09
-5927.02
-8206.39
-7370.93
-5175.06
-3255.54
-5089.99
-3559.02
-4716.39
-4718.51
-3832.74
-4827.47
-4643.42
-5893.65
-6143.97
-4307.72
-3921.67
-5503.67
-4978.49
-3475.43
-2288.89
-3414.04
-2498.53
-3177.36
-3147.99
-2593.31
-1774.02
-1710.01
-2150.39
-2230.73
-1584.63
-1437.99
-2023.11
-1841.66
-1166.27
-824.093
-1211.13
-920.006
-1162.31
-1142.55
-932.559
9264.03
29793
7428.52
31119.7
5472.45
31810.8
8420.29
47786.8
10305.3
65356.2
10367
48346.3
10125.8
40533.1
10560.2
35707.2
6363.35
4097.76
17159.9
10328.1
6099.42
3296.61
18203.4
8974.25
7226.21
5525.51
22723.8
16751.2
5477.62
4245.25
22776.1
17279.8
12993.6
5571.31
11328.9
5165.76
5458.69
12458.3
42612.1
11294.6
15299.8
4751.39
53569
14165.2
13811.1
4245.05
31225.7
9526.04
16007.7
5323.25
27845.6
8729.72
9840.12
4878.43
12594.1
5062.59
10773.4
5783.5
12425
4939.59
13105.8
7589.26
10657.4
4821.25
14996.5
5545.57
5049.95
1808.99
16825.2
11948.8
9988.85
7352.98
17036.9
13953
9075.99
7671.12
10164.3
7161.19
15230.1
10691.4
6251.72
4559.47
2741.65
2225.7
5532.08
4656.9
2370.6
2322.42
6447.54
4333.17
2945.48
1864.39
9589.71
5397.1
7550.16
8990.87
13778.3
9981.53
11470.2
15758.2
6042.18
2985.62
4244.8
5003.02
2735.63
1201.24
1616.44
1753.18
14075.6
24995.9
9339.53
27714.1
16184.7
24212.8
11376.5
28616.5
17845.6
21518
14259.4
27303
17350.7
18349.5
15074.6
15103.6
16231.6
18343.1
19370.4
21234.9
23079
32761.3
15024.6
13372.4
12917.2
14922.4
22552
29279.3
26356.4
33698.6
32700.7
26696
24856.7
32960
31780.7
22886.3
22482.8
30530.2
30294.5
13615
10988.4
14918.5
13552
17538.9
16664.4
20028
20017.2
27400.3
28796.3
12538.4
11440.6
13740.3
14514
15478.2
17825
18166
21699.5
23701.2
28709.4
10969.6
8558.63
7129.38
8604.41
13154.5
15022.6
8735.54
13171
6702.11
8241.67
10490.5
8673.78
1819.4
5468.66
535.704
1678.3
4203.18
8503.43
1161.56
2635.41
1266.3
5064.07
303.302
1533.54
7006.87
6871.41
8211.36
5318.81
11485.2
9347.45
13731.4
9833.27
1997.74
3659.15
4052.61
2427.41
1874.74
2362.11
2694.81
2001.87
21283.3
13033.1
4205.89
23875.9
13870.5
4564.32
20366.3
12839.8
4413.51
23282.6
13800.9
4544.73
18597.1
11766.8
3903.27
22437.8
13705.3
4582.62
7869.16
4776.29
1476.4
11350.5
7590.05
2586.71
14539.9
9914.39
3403.39
17531.8
11469.4
3826.97
21994.5
13886.4
4794.61
8876.46
5510.91
1934.25
11402
8296.99
3165.08
14405.4
10539
3921.55
17953.3
12600.9
4554.27
22316.3
14201.5
5080.92
248.531
2032.16
2796.15
4114.54
2548.52
2799.9
6263.96
5824.53
554.635
863.836
590.064
894.026
392.663
1207.74
752.091
1597.67
2799.8
1410.2
3731.49
2222.75
1866.47
3134.17
3246.35
59.8883
6792.11
986.457
-2895.82
-550.83
1155.68
316.54
362.366
-159.824
8327.8
3279.02
2211.04
1199.4
8461.19
3368.83
2795.28
1495.17
8425.56
3572.83
3875.93
2286.67
2501.43
1498.44
480.561
534.095
13037.1
11218.5
5881.92
5907.42
15341
14028.1
7354.5
7165.66
4668.46
4651.98
10247.9
8149.8
3141.45
3299.43
1240.74
1672.15
4194.42
4092.96
1790.27
2060.51
2339.08
2625.27
805.26
1412.98
3695.96
2081.66
3522.56
1963.97
6145.55
2870.26
5500.28
2842.19
1852.82
1322.69
2043.11
1140.94
562.93
556.305
1094.25
528.322
9427.93
5504.75
4031.8
3482.23
9448.59
5828.35
4021.06
3480.19
10111.9
6496.17
4082.71
3472.75
14308.8
16951.7
11846.2
7052.8
3153.53
15928.5
13249.7
11018.5
8026.69
3995.38
14827
12130.9
8731.22
5882.28
2840.72
3739.72
2686.8
2995.05
2749.71
4157.12
2889.85
3145.15
2848.08
4882.49
3384.02
3384.85
3041.52
11876.2
8456.29
9791.28
6611.06
6776.92
5066.49
5425.89
4104.51
3297.71
3208.71
9927.43
8587.99
7827.65
6572.66
5859.4
4947.74
4322.68
3817.99
2522.9
3026.18
6956.01
4702.51
4453.3
2808.16
10036.4
7622.28
6705.87
5467.23
3194.32
1944.88
4805.62
3395.98
4151.91
1984.21
1167.76
615.977
4849.02
3542.53
1303.53
1098
3207.76
1389.36
972.079
449.019
2142.47
1766.63
1365.51
1802.19
3127.54
2599.5
1782.68
2284.8
2165.22
1215.31
982.866
1221.41
436.903
162.77
-182.931
67.342
1674.9
704.671
204.88
1690.56
477.468
128.103
1862.5
829.069
251.872
1779.95
527.738
148.037
2092.63
989.723
275.035
1912.96
595.017
152.405
5521.52
3108.36
880.733
4064.87
2133.52
607.571
3184.36
1607.4
474.983
2504.45
1194.39
311.183
2047.93
636.89
132.507
6471.23
3543.35
1113.69
4820.62
2479.52
750.454
3621.66
1815.88
548.391
2741.99
1243.71
344.769
2236.78
622.132
162.548
1076
332.461
83.1202
-2.9726
443.031
140.737
39.3821
4.40707
1119.63
352.152
96.5343
8.64038
538.174
177.776
71.4348
27.2734
1166.54
372.685
123.748
31.5722
828.498
290.06
75.0491
11.5683
499.307
200.928
18.7773
-20.0943
307.166
153.043
48.3443
16.1495
856.928
296.837
66.127
-21.8296
681.979
229.593
80.0853
-10.8441
1091.07
351.698
107.197
7.65311
925.547
293.76
103.647
-17.2402
585.077
221.855
55.3402
-8.34242
453.348
165.419
65.1246
5.43625
306.062
136.196
50.2235
19.4717
227.58
98.5867
46.6736
18.2476
1328.88
405.782
102.825
-16.374
1224.45
368.371
131.9
-19.2903
1314.58
402.911
104.226
-16.1247
1186.42
355.251
130.811
-19.7169
1272.58
391.43
124.518
1.80413
1116.25
331.915
139.655
-7.82172
1084.92
341.665
135.574
36.2838
1214.56
359.696
175.319
-5.16144
923.403
287.941
122.55
10.8397
888.685
251.491
106.233
-3.14101
335.92
89.7933
30.6289
5.15068
931.812
264.857
109.821
-1.87488
355.861
95.832
34.1203
7.54987
977.854
279.827
120.135
2.38111
376.839
102.941
37.7843
9.90701
896.599
258.918
126.181
7.58649
377.072
104.395
44.94
13.7252
817.253
244.296
121.009
14.0469
343.978
103.677
51.9852
17.6841
501.065
156.119
58.6519
4.63933
282.312
100.836
41.9497
16.3247
628.291
185.953
81.6594
7.59323
314.896
104.194
48.4399
17.8794