/*--------------------------------*- C++ -*----------------------------------*\
| =========                 |                                                 |
| \\      /  F ield         | OpenFOAM: The Open Source CFD Toolbox           |
|  \\    /   O peration     | Version:  2306                                  |
|   \\  /    A nd           | Website:  www.openfoam.com                      |
|    \\/     M anipulation  |                                                 |
\*---------------------------------------------------------------------------*/
FoamFile
{
    version     2.0;
    format      ascii;
    arch        "LSB;label=32;scalar=64";
    class       volVectorField;
    location    "0.3";
    object      flux;
}
// * * * * * * * * * * * * * * * * * * * * * * * * * * * * * * * * * * * * * //

dimensions      [0 1 -1 1 0 0 0];

internalField   nonuniform List<vector> 
5322
(
(-0.000972945 0.00250263 -0.00334822)
(3.27257e-05 0.000256307 -0.00330326)
(3.75325e-05 1.49257e-05 -0.00321976)
(1.86771e-06 -5.97045e-05 -0.00348803)
(-1.78519e-06 -1.41122e-05 -0.00323981)
(-1.79179e-06 1.65897e-05 -0.00302377)
(-1.07369e-06 2.86029e-05 -0.00283602)
(-5.57176e-07 3.723e-05 -0.00267994)
(-5.3132e-07 5.49706e-05 -0.00256013)
(-9.59438e-07 7.65968e-05 -0.00248752)
(-2.55096e-06 6.3554e-06 -0.002405)
(2.67213e-05 -0.000467277 -0.00239235)
(4.094e-05 -0.000516345 -0.00179475)
(-0.000563641 -0.000463731 -0.00247744)
(-1.45836e-05 -0.000403373 -0.00271149)
(0.000985243 0.000875539 -0.0021719)
(-0.00077383 0.00117017 -0.00256594)
(-1.10499e-05 -2.5166e-06 -0.00192783)
(-0.000593278 0.000814076 -0.00272711)
(0.000391862 -0.000978786 -0.00278067)
(-0.00053216 0.000942229 -0.00284574)
(0.000479927 -0.000979107 -0.00288158)
(-0.000507747 0.000977135 -0.00295306)
(0.000534952 -0.00102997 -0.00303542)
(-0.000543831 0.00104905 -0.00312603)
(0.000551986 -0.00106544 -0.00319127)
(-0.00055383 0.00109041 -0.00330119)
(0.000610456 -0.00115649 -0.00341358)
(-0.000603834 0.00118425 -0.00353964)
(0.000643677 -0.00121757 -0.00363029)
(-0.000611016 0.00125817 -0.00376662)
(0.000740857 -0.00131003 -0.00389062)
(-0.000554111 0.00138911 -0.004008)
(0.0009028 -0.00123949 -0.00405769)
(3.23463e-05 0.00121329 -0.00398338)
(0.00119288 -0.000632298 -0.00334469)
(0.00084269 0.00125188 -0.0038536)
(-0.000335246 0.00155559 -0.00388528)
(0.000937962 0.00078027 -0.00400823)
(-5.44831e-05 0.000855564 -0.00286112)
(-0.000889746 0.00114859 -0.00372321)
(0.000893846 0.00096119 -0.00384275)
(-5.41456e-05 0.00100659 -0.00280821)
(-0.000950853 0.0010726 -0.00384709)
(0.000945214 0.00102278 -0.00380907)
(-3.25118e-05 0.00102603 -0.00285596)
(-0.00101062 0.00103909 -0.00390139)
(0.000884947 0.00111031 -0.00368446)
(-2.19392e-05 0.00104285 -0.00282089)
(-0.00105982 0.000983783 -0.00382331)
(-0.00104786 0.00123681 -0.00431128)
(-0.00151596 0.000583009 -0.00303481)
(-0.000483155 0.000662715 -0.00416705)
(0.000997216 -0.00213709 -0.00383822)
(-6.43954e-05 -0.000112272 -0.00354141)
(-0.0016411 -0.00123364 -0.0036438)
(-4.79283e-05 0.000658533 -0.00438518)
(0.00156544 -0.00161423 -0.00358289)
(-1.88794e-05 -8.68921e-05 -0.00356886)
(-0.0015647 -0.00140288 -0.00364341)
(-6.80353e-06 0.000668521 -0.0044361)
(0.00152463 -0.00158712 -0.00363113)
(-8.56824e-06 -7.74822e-05 -0.00356961)
(-0.00153681 -0.00139251 -0.00355382)
(1.16265e-07 0.000671308 -0.00443411)
(0.00150231 -0.00164368 -0.00375583)
(2.01417e-05 -0.000101696 -0.00355418)
(-0.00152192 -0.00134809 -0.00337691)
(7.02173e-05 0.000678705 -0.00433598)
(0.00124931 -0.00181643 -0.00399474)
(5.69986e-05 6.09902e-05 -0.00294899)
(-0.00128881 0.00153736 -0.00451998)
(0.00146133 0.000855387 -0.00430375)
(-0.00151053 0.00119629 -0.00424168)
(0.00145392 0.000892419 -0.00428528)
(-0.00148085 0.00113145 -0.00426454)
(0.00148315 0.000943273 -0.00426206)
(-0.00148135 0.001127 -0.0042484)
(0.00168658 0.00095753 -0.00430761)
(-0.0012216 0.00133027 -0.00408896)
(0.00059143 0.000114357 -0.00391611)
(-0.000819822 0.000468444 -0.00305922)
(-0.000537638 0.000700556 -0.00317155)
(0.000902123 0.00114938 -0.00421815)
(8.77417e-05 -9.03138e-05 -0.00282891)
(-0.000476398 -0.000459588 -0.00379808)
(0.000615752 0.000141597 -0.00525277)
(-0.00167224 0.00027522 -0.00327501)
(-0.000596851 0.000535419 -0.00333245)
(0.00194118 6.73384e-05 -0.0029601)
(-8.50074e-05 0.000141617 -0.00371507)
(3.06917e-05 2.603e-05 -0.00310635)
(5.59632e-05 3.94495e-06 -0.00327608)
(0.000275085 4.33691e-06 -0.00325609)
(0.0013128 0.00159013 -0.00402124)
(-0.000293142 -0.000867992 -0.00359043)
(-2.17698e-05 2.68262e-05 -0.003524)
(-0.00013508 0.000875914 -0.00364082)
(0.000634478 2.47626e-05 -0.00534424)
(-0.00148086 -2.93745e-05 -0.00318456)
(-0.00148079 0.000131186 -0.00321501)
(0.00322017 2.49117e-05 -0.0030063)
(-0.000133503 0.000930103 -0.00366884)
(0.00101347 -0.0015491 -0.00397506)
(0.0016511 0.00138749 -0.00432898)
(-4.61275e-06 2.26984e-05 -0.0034225)
(1.212e-05 -2.77582e-05 -0.0036205)
(1.35817e-05 -4.57553e-06 -0.00350871)
(7.75134e-06 -2.34095e-07 -0.00327179)
(3.45279e-06 2.03563e-06 -0.00306547)
(1.16226e-06 2.11468e-06 -0.00287796)
(-4.35824e-07 2.14928e-06 -0.00271588)
(-3.03544e-06 3.724e-06 -0.00258344)
(-7.08755e-06 6.6906e-06 -0.00249768)
(1.0802e-05 -1.05769e-05 -0.00280922)
(-3.76696e-06 2.96501e-06 -0.00276271)
(-0.000324823 0.000332539 -0.00193617)
(-0.000320058 -0.000136188 -0.00209633)
(3.43242e-05 -4.73337e-05 -0.00280371)
(0.000203687 -0.000255976 -0.00230936)
(1.136e-05 0.000315127 -0.00204435)
(0.000310213 -0.000174392 -0.00248297)
(-0.000371091 -0.000340424 -0.00244817)
(-2.78098e-05 -0.000466108 -0.00344698)
(-8.59239e-05 -0.000526574 -0.00256886)
(0.000575358 -2.12269e-05 -0.00337532)
(0.000473057 0.000386259 -0.00242493)
(0.000131169 -0.00029129 -0.00253206)
(0.000370053 2.73483e-05 -0.00331749)
(0.0002388 0.000318234 -0.00241491)
(0.000181448 -0.000316929 -0.0024784)
(0.000397311 1.33748e-05 -0.00334754)
(0.000200144 0.000330805 -0.00245237)
(0.000214752 -0.000339197 -0.00243232)
(0.000404213 -1.07233e-05 -0.00336282)
(0.000175132 0.000308911 -0.00248691)
(0.000338309 -0.000370592 -0.00244729)
(0.000459438 -2.95005e-05 -0.00345277)
(0.000520695 -8.59746e-05 -0.00257101)
(2.23853e-05 0.000567471 -0.00337592)
(-0.00038195 0.000469911 -0.00243119)
(2.08393e-05 -0.000308874 -0.00205142)
(0.00025486 0.00020461 -0.00230976)
(-0.000309117 0.000159021 -0.00206711)
(-0.000332021 -0.000326156 -0.00193984)
(4.78579e-05 3.55777e-05 -0.00280421)
(0.000136658 -0.000319174 -0.00209657)
(7.49529e-05 0.000250296 -0.00208204)
(-0.000259829 0.000257471 -0.00191433)
(-0.000285621 -0.000283941 -0.00192708)
(5.39179e-05 -4.26307e-06 -0.00279968)
(8.452e-05 -0.000264639 -0.0020849)
(0.000102031 0.000265711 -0.00207687)
(-0.000281891 0.000287149 -0.00191559)
(-0.000267311 -0.000257726 -0.00193143)
(5.43733e-05 -8.60978e-07 -0.00279886)
(5.53499e-05 -0.000246101 -0.0020889)
(0.000161882 0.000312728 -0.00206604)
(-0.000308789 -2.00878e-05 -0.00205056)
(0.000403036 -1.50528e-05 -0.00271123)
(-0.000871337 0.000985284 -0.00216882)
(-0.00116702 -0.000771847 -0.00256945)
(0.00101575 0.000860548 -0.00301311)
(-0.00119999 -0.000924687 -0.00297723)
(-5.10048e-05 3.18395e-05 -0.0018764)
(-0.000816487 -0.000587669 -0.00272793)
(7.26795e-06 -1.13659e-05 -0.00192817)
(0.000792107 -2.87284e-06 -0.00260275)
(-0.00018978 -0.000108341 -0.00177608)
(0.000938047 0.000281514 -0.00240027)
(0.000464873 -0.000563156 -0.00248058)
(0.000693411 0.000560402 -0.00230464)
(-0.00104411 -0.000944562 -0.00239631)
(0.000406322 2.21713e-06 -0.00277286)
(-0.000899746 0.000964927 -0.00228812)
(0.000603988 -0.000961248 -0.00284109)
(0.00078725 0.00100077 -0.00282096)
(-0.00097288 -0.00103451 -0.00275553)
(2.53879e-05 4.3727e-06 -0.00228816)
(-0.000827096 0.00101932 -0.00275094)
(0.000740046 -0.00106046 -0.00286004)
(0.000921049 0.0010999 -0.0028656)
(-0.000996317 -0.00111687 -0.00289171)
(-9.57345e-07 4.2449e-06 -0.00239574)
(-0.000835044 0.0010923 -0.00289518)
(0.000812885 -0.00112402 -0.00296992)
(0.000993096 0.00116046 -0.00297342)
(-0.00104227 -0.00118373 -0.00303519)
(4.73455e-06 2.90223e-06 -0.00251138)
(-0.000869798 0.00115667 -0.00303817)
(0.000870999 -0.00119106 -0.00312704)
(0.00105791 0.00122752 -0.0031296)
(-0.00110862 -0.00125727 -0.0032098)
(8.51454e-06 2.77473e-06 -0.00265422)
(-0.000925656 0.00122917 -0.00321418)
(0.00092338 -0.00127121 -0.00332134)
(0.00112564 0.00131001 -0.00332562)
(-0.00119776 -0.00134107 -0.00341367)
(1.12702e-05 3.7892e-06 -0.0028252)
(-0.00100262 0.00131149 -0.00342095)
(0.000970311 -0.00136539 -0.00354866)
(0.0011959 0.00140773 -0.00355649)
(-0.00130882 -0.00143052 -0.00364226)
(1.49949e-05 5.11341e-06 -0.00301992)
(-0.00109478 0.00139677 -0.00365307)
(0.00100679 -0.0014659 -0.00379654)
(0.00126376 0.00151078 -0.00380923)
(-0.00142448 -0.00149988 -0.00389305)
(2.21272e-05 6.72755e-06 -0.00322141)
(-0.00117713 0.00145734 -0.0039091)
(0.00101305 -0.00155245 -0.00399224)
(0.00126395 0.00156553 -0.00400458)
(-0.000263721 -0.000868672 -0.00363311)
(0.000606437 -4.49106e-06 -0.00534636)
(-0.00146874 -7.28829e-05 -0.00318508)
(-0.0014978 3.25111e-05 -0.00317423)
(0.00323841 -2.68672e-05 -0.0030164)
(-0.00011964 -1.50087e-06 -0.00421131)
(-0.000129945 9.60562e-06 -0.00420029)
(6.31229e-05 1.33714e-05 -0.00327633)
(0.000297421 3.44852e-07 -0.00325779)
(0.00130499 0.00159306 -0.00401)
(-0.00022811 -0.00086488 -0.00361931)
(-8.47629e-06 6.41105e-06 -0.00348403)
(-0.000258199 0.00103319 -0.00366945)
(0.000578835 -0.000145557 -0.00533153)
(-0.00149555 -4.88291e-05 -0.00320321)
(-0.00147228 4.09458e-05 -0.00317277)
(0.00321946 -5.29862e-05 -0.00302248)
(-0.000163331 0.000872475 -0.00361939)
(0.00101353 -0.00156883 -0.00399687)
(-2.30258e-05 9.31335e-06 -0.00352232)
(2.00592e-05 7.00921e-06 -0.00355172)
(1.62763e-05 1.96247e-05 -0.00350251)
(9.96837e-06 1.21222e-05 -0.00327161)
(4.83514e-06 6.09783e-06 -0.00306731)
(1.88856e-06 2.54875e-06 -0.00287954)
(-6.07836e-08 1.93301e-07 -0.00271685)
(-2.7868e-06 -2.93019e-06 -0.0025839)
(-6.43652e-06 -7.18629e-06 -0.00249772)
(1.07752e-05 1.04334e-05 -0.0028092)
(-3.46194e-06 -3.86329e-06 -0.00276351)
(0.000257929 -0.000267594 -0.00192792)
(-0.000286371 -0.000285101 -0.00192213)
(0.000285449 -0.000285261 -0.00192065)
(-0.000259056 -0.000268181 -0.00192772)
(5.49663e-07 5.53395e-05 -0.00279853)
(0.000259256 9.39721e-05 -0.0020767)
(-0.000244858 5.9e-05 -0.00208819)
(-1.32091e-06 -0.000359825 -0.00209758)
(-0.000307664 0.000187802 -0.00247786)
(1.88519e-07 -0.000380706 -0.00348837)
(-0.000259237 9.41618e-05 -0.00207727)
(-1.48641e-07 5.54491e-05 -0.00279869)
(0.000244305 5.91368e-05 -0.00208765)
(9.62817e-06 -0.000376236 -0.00346872)
(0.000287311 0.000130552 -0.00252474)
(-2.34895e-05 0.000359884 -0.00330665)
(-0.000310692 0.000231913 -0.00241335)
(1.00049e-06 -0.000359691 -0.00209814)
(0.00030726 0.0001882 -0.00247767)
(-3.07673e-07 0.000390696 -0.00330734)
(-3.38495e-08 0.00054584 -0.0017672)
(0.000545201 0.000576829 -0.0023772)
(-0.000940958 -0.000949398 -0.00228953)
(0.000939923 -0.000947286 -0.00228688)
(-0.000929494 -0.0010194 -0.00239707)
(0.000986858 0.000746223 -0.002819)
(-0.00102124 -0.000935229 -0.00275606)
(0.00108472 0.000872522 -0.00286409)
(-0.00110148 -0.000950786 -0.00289186)
(0.00114416 0.00094079 -0.00297284)
(-0.00116712 -0.000992007 -0.00303497)
(0.00121026 0.00100279 -0.00312968)
(-0.00123973 -0.00105403 -0.00320968)
(0.00129174 0.00106751 -0.00332644)
(-0.00132231 -0.00113865 -0.00341352)
(0.00138853 0.0011352 -0.00355868)
(-0.0014106 -0.00124623 -0.00364122)
(0.00149169 0.00120383 -0.00381393)
(-0.00148021 -0.00136306 -0.00388905)
(0.0015728 0.00126218 -0.00403048)
(-0.000861631 -0.000265246 -0.00358735)
(1.91237e-05 0.000645838 -0.00534546)
(0.000870773 -0.000176136 -0.00365536)
(2.39968e-05 -1.75038e-05 -0.00352292)
(-0.00153352 0.00109279 -0.00398315)
(0.00144119 -0.00125505 -0.00391883)
(7.7774e-06 2.59216e-05 -0.00322329)
(-0.00144826 0.00109154 -0.00379565)
(0.00137926 -0.00117724 -0.0036579)
(5.14895e-06 1.69611e-05 -0.00302152)
(-0.00134884 0.0010526 -0.00355048)
(0.0012943 -0.00108186 -0.00342287)
(3.34975e-06 1.2259e-05 -0.0028263)
(-0.00125571 0.00100019 -0.00332361)
(0.00121273 -0.000999806 -0.00321463)
(2.23103e-06 8.90485e-06 -0.00265485)
(-0.00117648 0.000942255 -0.0031292)
(0.00114108 -0.00093873 -0.00303774)
(2.06545e-06 4.68699e-06 -0.00251166)
(-0.00111036 0.000879715 -0.00297259)
(0.00107765 -0.000898239 -0.00289359)
(2.96146e-06 -1.35844e-06 -0.00239577)
(-0.00104807 0.000801777 -0.00286408)
(0.001005 -0.000883041 -0.00274803)
(3.24488e-06 2.43152e-05 -0.00228757)
(-0.000948891 0.000653963 -0.00284498)
(6.09976e-07 -6.03403e-05 -0.00232305)
(0.000948721 0.000653416 -0.00284187)
(-0.0010054 -0.000884378 -0.00275104)
(-4.42229e-06 2.43551e-05 -0.00228761)
(-0.000985269 0.000750084 -0.00282185)
(0.000928195 -0.00101359 -0.00239655)
(-1.75037e-06 0.000405723 -0.00277235)
(-0.000549808 0.000669481 -0.00229977)
(-3.57155e-05 0.000499968 -0.0017886)
(0.000559226 0.000468234 -0.00248611)
(-0.000974492 -0.000894034 -0.00217256)
(0.000948783 0.000591985 -0.00285373)
(-0.00101038 -0.000850164 -0.00276103)
(0.00103139 0.000765135 -0.00285877)
(-0.00106861 -0.000861618 -0.00290791)
(0.00109228 0.000846051 -0.00297155)
(-0.00112328 -0.000899863 -0.00304564)
(0.00115868 0.000907755 -0.00313287)
(-0.00118945 -0.000959299 -0.00321822)
(0.00124093 0.000965939 -0.00333231)
(-0.00126625 -0.00104301 -0.00342132)
(0.00134212 0.00102463 -0.00357176)
(-0.00134366 -0.00114287 -0.0036379)
(0.00145504 0.00108045 -0.00384276)
(-0.00138837 -0.00121163 -0.00385382)
(0.00154435 0.00110261 -0.00404417)
(-0.000849869 -0.000167633 -0.00360825)
(-0.000189771 0.000472193 -0.00527298)
(0.000366149 -0.000488049 -0.0038168)
(4.46336e-05 6.14759e-06 -0.00340035)
(-0.00143481 0.00151496 -0.0043053)
(0.00124988 -0.00177347 -0.00421583)
(1.55965e-05 4.44806e-05 -0.0031225)
(-0.00131956 0.00155422 -0.00408916)
(0.00123419 -0.00161824 -0.00392488)
(6.26814e-07 2.6329e-05 -0.00292717)
(-0.00119425 0.00147604 -0.00381387)
(0.00115215 -0.00145919 -0.00366387)
(-3.13158e-06 1.54063e-05 -0.00273423)
(-0.00110489 0.00138179 -0.00356164)
(0.00107385 -0.0013446 -0.00343825)
(-3.4361e-06 9.74667e-06 -0.00256712)
(-0.00103715 0.00130039 -0.00335189)
(0.00101305 -0.00126439 -0.00325278)
(-6.36233e-06 4.48086e-06 -0.00242986)
(-0.000982111 0.0012321 -0.00318377)
(0.000968437 -0.00120744 -0.00310487)
(-1.32315e-05 2.75844e-07 -0.00232108)
(-0.000930221 0.00116266 -0.00306844)
(0.000923601 -0.00117809 -0.00297819)
(-2.82296e-05 2.98535e-05 -0.00221986)
(-0.000843053 0.00100566 -0.00301264)
(0.00076569 -0.00115139 -0.00256906)
(1.61367e-05 0.000403213 -0.00271053)
(-0.000276445 0.000935136 -0.0023996)
(0.000469975 0.000830441 -0.00253235)
(0.000773266 -0.000416949 -0.00221204)
(2.24454e-05 0.000797197 -0.00261114)
(9.55877e-05 -0.000188818 -0.00177115)
(-0.000141235 0.000148134 -0.00202167)
(0.000397373 0.000952643 -0.00230671)
(-0.00122552 -0.00082496 -0.00211901)
(0.000937986 0.000775775 -0.0029195)
(-0.00118872 -0.000739053 -0.00287492)
(-0.000800478 0.0011841 -0.00277039)
(-0.000990224 -0.00104275 -0.00275247)
(2.93228e-05 -8.33904e-06 -0.00228152)
(0.000645233 -0.00115363 -0.00282212)
(0.000713937 0.000984216 -0.00286363)
(-0.00101879 -0.000998491 -0.00220547)
(0.000392744 2.90876e-05 -0.00278362)
(-0.000913727 0.00105069 -0.00245237)
(-6.85544e-05 4.67165e-05 -0.00234087)
(4.81691e-05 1.96854e-05 -0.00229994)
(-0.0003685 -0.000296279 -0.003367)
(3.14468e-05 2.89888e-05 -0.00271122)
(-1.4919e-05 -2.3766e-05 -0.00257067)
(-0.00039047 1.55711e-05 -0.00345821)
(3.82527e-05 -5.779e-06 -0.00249545)
(-6.41023e-05 -2.09665e-06 -0.0023277)
(-0.000927676 0.000961078 -0.0023687)
(-0.00100612 -0.000962913 -0.00230214)
(0.000732394 0.000971861 -0.00284487)
(-0.000959564 -0.00102179 -0.00274806)
(9.41843e-06 2.6048e-07 -0.0023438)
(0.000889863 0.00107092 -0.0028661)
(-0.000987319 -0.00109736 -0.00289361)
(0.000975218 0.00113527 -0.00297412)
(-0.00103501 -0.00116214 -0.00303783)
(4.82378e-07 1.1269e-06 -0.00254011)
(0.00104579 0.00120427 -0.00313173)
(-0.00110283 -0.00123372 -0.00321286)
(0.00111427 0.00128769 -0.00332869)
(-0.00119301 -0.00131409 -0.00341672)
(3.5922e-05 1.62245e-06 -0.0028628)
(0.00118175 0.00138562 -0.0035601)
(-0.0012991 -0.00139686 -0.00364383)
(0.00124088 0.00148685 -0.00381093)
(-0.0013941 -0.00145772 -0.00389586)
(0.000288089 -2.34683e-06 -0.00326064)
(6.23644e-05 2.19062e-06 -0.00327912)
(3.46929e-05 3.57036e-06 -0.00307036)
(3.71283e-05 1.12456e-05 -0.00307133)
(1.30414e-05 6.19363e-06 -0.00287808)
(3.83919e-05 4.68416e-06 -0.00286872)
(0.0012223 0.00139848 -0.00357294)
(-0.00133316 -0.00139517 -0.00364492)
(2.23967e-05 7.14535e-06 -0.0030171)
(-0.0010814 0.00165168 -0.00367792)
(0.000927066 -0.00169042 -0.00377344)
(0.00129034 0.00151336 -0.00383347)
(-0.00139931 -0.00144328 -0.00387588)
(3.91632e-05 1.4718e-05 -0.0032131)
(-0.00122909 0.00175532 -0.00395331)
(0.000889992 -0.00172823 -0.00393282)
(0.001781 0.00110383 -0.004395)
(-0.000193924 -0.000786508 -0.00347825)
(4.79402e-05 -0.00131261 -0.00526632)
(-0.00160745 -9.29708e-05 -0.00325099)
(-0.00148681 -1.42504e-05 -0.00310209)
(0.00305643 -0.000473504 -0.00310085)
(-0.000195193 -0.000123507 -0.00407064)
(4.44701e-05 3.11953e-05 -0.00308949)
(7.62127e-05 0.0008146 -0.00276552)
(-0.000871048 0.00104627 -0.00398111)
(0.000191507 7.91069e-05 -0.00261372)
(0.000636278 -0.00162294 -0.00370564)
(-0.000659215 0.00119727 -0.00369094)
(5.15646e-05 8.44201e-06 -0.00242993)
(0.000638856 -0.00127905 -0.00352025)
(-0.000577482 0.0011374 -0.00342421)
(6.77941e-06 -5.8251e-06 -0.0022663)
(0.000582557 -0.00112548 -0.00331884)
(-0.000554239 0.0010798 -0.00321491)
(-2.00715e-06 -2.55946e-06 -0.00212954)
(0.000524427 -0.00102332 -0.00311506)
(-0.000508084 0.00101658 -0.00301994)
(-1.4128e-05 -9.49825e-06 -0.00201834)
(0.000519789 -0.000971227 -0.00296791)
(-0.00046803 0.00100718 -0.00288208)
(-3.18728e-05 -1.87832e-05 -0.00193505)
(0.000527762 -0.000889576 -0.00284194)
(-0.000356002 0.00099351 -0.00276542)
(-5.12264e-05 -6.29887e-05 -0.00187495)
(0.000610046 -0.000773424 -0.00274127)
(0.000230629 0.000247828 -0.00209055)
(0.000170172 0.000374095 -0.00201521)
(-4.39294e-05 -0.00046732 -0.00252284)
(-2.2783e-05 2.11595e-06 -0.00221305)
(0.000244461 0.000767863 -0.00248094)
(-0.000107055 -0.000667441 -0.00261507)
(0.00111513 0.000781088 -0.0029171)
(-0.00121255 -0.000778244 -0.0030011)
(0.00121272 0.000807809 -0.00304245)
(-0.00126754 -0.000819232 -0.00313381)
(-0.000820476 0.00133266 -0.00303925)
(-0.0010646 -0.00116824 -0.003046)
(4.47354e-06 -3.02723e-06 -0.00250629)
(0.000793952 -0.00130442 -0.0029792)
(0.00100146 0.00113683 -0.00297744)
(-0.00101561 -0.00110825 -0.0029045)
(-3.01763e-07 -6.78318e-06 -0.00239223)
(-0.000786512 0.00126089 -0.00289515)
(3.05757e-06 5.07439e-07 -0.00242667)
(-9.12494e-07 -4.39037e-06 -0.00229775)
(7.37587e-06 -2.79088e-06 -0.00222089)
(-2.34724e-06 -6.98405e-05 -0.00197262)
(1.2623e-05 6.02083e-06 -0.00230377)
(6.28158e-05 9.32395e-05 -0.00223161)
(5.70928e-05 0.000103538 -0.00214039)
(9.92004e-05 4.15396e-05 -0.00249768)
(-4.39501e-05 2.03516e-05 -0.00248276)
(1.07232e-05 6.11646e-05 -0.00240348)
(0.000432154 4.2598e-05 -0.00240608)
(0.000683169 -5.49289e-05 -0.00186262)
(0.000570197 0.000889291 -0.00303837)
(0.000193228 0.000284983 -0.00168409)
(0.000871238 6.1478e-05 -0.00226833)
(0.000345444 0.000213345 -0.00241923)
(0.000168598 4.31414e-05 -0.00238861)
(5.70051e-05 9.45546e-06 -0.0024714)
(2.1729e-05 6.77932e-06 -0.00259265)
(-3.46171e-05 5.98312e-06 -0.00255609)
(-3.61293e-05 5.4639e-06 -0.0026765)
(-4.848e-06 -1.14811e-06 -0.00272787)
(2.48206e-05 -3.87367e-06 -0.00258128)
(-0.000145307 -0.000733581 -0.00272253)
(-2.53374e-07 -2.75796e-06 -0.0024203)
(0.000176893 0.000761606 -0.00275755)
(-0.000162526 -0.000780602 -0.00284785)
(0.0012936 0.000848704 -0.00321736)
(-0.00134698 -0.000868847 -0.00330532)
(0.00138237 0.000910196 -0.00342574)
(-0.00146313 -0.00092714 -0.00351085)
(-0.000959293 0.00152425 -0.00343018)
(-0.0012288 -0.00131683 -0.0034236)
(1.36449e-05 2.1418e-06 -0.00282114)
(0.000881142 -0.00146581 -0.00332788)
(0.00114864 0.00129318 -0.00333588)
(-0.00113517 -0.00123799 -0.00321997)
(8.9968e-06 -5.11316e-07 -0.0026491)
(-0.000876665 0.00141802 -0.003218)
(7.05421e-06 3.81523e-06 -0.00269529)
(3.45299e-06 5.2196e-07 -0.00255705)
(-6.20547e-07 -2.35049e-06 -0.00241254)
(-1.81668e-06 -5.51315e-06 -0.0021419)
(-4.56306e-06 -2.40778e-05 -0.00250303)
(3.60337e-06 2.99744e-07 -0.00247307)
(4.11291e-06 3.7531e-07 -0.00236714)
(-4.11952e-07 -1.39378e-05 -0.00238257)
(1.272e-05 2.57946e-05 -0.00230081)
(1.84101e-05 1.84542e-05 -0.00220861)
(0.000197329 0.000743406 -0.00262455)
(-1.89264e-06 9.72728e-07 -0.00231394)
(-3.42751e-06 -3.28824e-05 -0.00204099)
(-5.99769e-06 5.17879e-06 -0.00252622)
(1.62858e-06 -6.07969e-05 -0.00249614)
(2.65199e-06 4.9131e-07 -0.0024141)
(-2.44888e-05 0.000470328 -0.0023942)
(5.65819e-05 0.000896412 -0.00226286)
(-0.000652763 0.00164629 -0.00219312)
(-3.18252e-06 0.000169152 -0.00219508)
(7.89058e-06 -2.4367e-05 -0.00192324)
(1.98494e-07 -6.71393e-06 -0.00242456)
(-8.84458e-06 -4.10036e-05 -0.00239411)
(0.00102161 -0.00092937 -0.00275459)
(1.66418e-07 1.39163e-06 -0.00233997)
(-0.00108399 0.000878997 -0.00286624)
(0.00104824 0.000800199 -0.00286162)
(-0.00107734 -0.000898546 -0.00289582)
(-3.56566e-06 -1.29635e-06 -0.0023962)
(0.00110347 -0.000947395 -0.00289118)
(6.31213e-07 2.41839e-06 -0.00241743)
(-0.00114358 0.00094655 -0.00297408)
(0.00111165 0.000878406 -0.0029715)
(-0.00113967 -0.000938053 -0.00303844)
(-1.36883e-06 4.81131e-06 -0.00251241)
(0.00117057 -0.000992176 -0.00303606)
(1.46945e-06 1.85379e-07 -0.00253489)
(-0.00120906 0.00100548 -0.00312992)
(0.00117954 0.000942476 -0.00313051)
(-0.00120956 -0.000998669 -0.0032129)
(4.34554e-07 9.12354e-06 -0.00265607)
(0.00124534 -0.00105846 -0.00321319)
(2.37176e-06 1.0619e-05 -0.00268351)
(-0.00128978 0.00106478 -0.00332508)
(0.00126139 0.00100376 -0.00332862)
(-0.00128842 -0.00108139 -0.00341647)
(2.40254e-06 1.27174e-05 -0.00282812)
(0.0013312 -0.00114949 -0.00342119)
(2.50568e-06 4.61575e-05 -0.00285723)
(-0.00138536 0.00111914 -0.00355204)
(0.00135778 0.00106447 -0.00356267)
(-0.00136958 -0.00118175 -0.00364141)
(5.49928e-06 1.77875e-05 -0.0030235)
(0.00142157 -0.00126234 -0.00365687)
(-1.3311e-06 0.000134209 -0.00305025)
(-0.00148495 0.00115433 -0.00379297)
(0.00145853 0.0011226 -0.00381902)
(-0.00142952 -0.00127789 -0.00388722)
(8.73899e-06 2.72079e-05 -0.00322262)
(0.00148246 -0.00136332 -0.0039162)
(-1.26801e-05 0.000336095 -0.00324671)
(-0.00155945 0.00115685 -0.00398226)
(0.00153743 0.00115675 -0.00402024)
(-0.000863785 -0.000209282 -0.00362779)
(-1.31356e-06 -1.66166e-05 -0.00351664)
(0.000857343 -0.000244718 -0.00362867)
(-5.46984e-05 0.00321756 -0.00303665)
(-0.000118253 -0.00147672 -0.00318786)
(-0.000114733 -0.00151322 -0.00306668)
(-0.000133779 0.00238456 -0.00286474)
(-0.00156113 0.000622757 -0.0040511)
(0.000371237 0.000247101 -0.00282379)
(0.000308198 -0.00212071 -0.00376655)
(-0.000129372 -0.000453006 -0.00303188)
(-0.00026475 -0.000268038 -0.00290436)
(-0.000119866 0.00104229 -0.00372489)
(-0.00162665 -0.00108922 -0.00379558)
(0.000349327 -1.95375e-05 -0.00324722)
(-0.000472727 2.86624e-05 -0.00343713)
(-0.000742777 -0.000151997 -0.0034455)
(-0.000235822 -0.000179801 -0.00335323)
(-0.00021775 -2.45331e-05 -0.00329657)
(-0.00024537 4.81439e-05 -0.00323163)
(-0.00011813 2.78484e-05 -0.00301989)
(-5.75061e-05 3.35457e-06 -0.00309106)
(1.92936e-05 -2.13274e-05 -0.00290835)
(-1.95621e-05 2.54541e-08 -0.00289444)
(-5.92204e-05 1.23549e-05 -0.00283336)
(-6.24367e-05 3.57466e-06 -0.00281296)
(-4.1733e-05 1.17294e-06 -0.00266087)
(-5.15232e-05 -1.24348e-06 -0.00254423)
(-7.68743e-05 -5.99525e-06 -0.00247303)
(5.73106e-06 -1.19554e-05 -0.0023894)
(0.000507887 -4.17132e-05 -0.0023722)
(0.000592258 -2.22193e-05 -0.00179908)
(0.000581177 0.000578605 -0.00246042)
(0.000669552 -0.000578824 -0.00217761)
(0.000830846 6.87964e-06 -0.00227305)
(0.000791134 3.75745e-06 -0.00228397)
(0.000616716 -0.000587972 -0.0023195)
(0.000620798 0.000579328 -0.00239668)
(0.000405865 -1.36618e-06 -0.00277941)
(-0.000360779 2.40375e-06 -0.00209328)
(0.000116328 -2.60248e-06 -0.00257884)
(-4.22675e-05 -4.38576e-05 -0.00254295)
(-2.95929e-05 -2.78068e-05 -0.00256979)
(0.000105587 0.000105065 -0.0026112)
(-0.00031452 1.11839e-05 -0.00204611)
(-8.45661e-07 0.000120902 -0.00257055)
(-4.83766e-07 -4.28721e-05 -0.00257571)
(-1.0001e-06 -5.25621e-05 -0.00256411)
(1.0939e-07 1.39973e-09 -0.00278203)
(-0.000198765 0.000193924 -0.00188323)
(-0.000226553 -0.000225527 -0.00189581)
(-0.000224562 0.000226526 -0.00189248)
(-0.000201159 -0.0001931 -0.00188916)
(0.000199495 -0.000195515 -0.00188312)
(-0.000169095 -0.000166982 -0.00187618)
(6.33917e-06 6.29732e-06 -0.00280172)
(0.000225669 0.000224663 -0.00188947)
(-0.000194478 0.00020203 -0.00188718)
(-0.000195238 -0.00020158 -0.00188784)
(6.29534e-06 -5.97718e-06 -0.00280192)
(0.00022481 -0.000226275 -0.0018926)
(1.42218e-08 2.24398e-08 -0.00279832)
(9.01994e-08 1.00137e-07 -0.00282172)
(1.56688e-07 1.41202e-05 -0.00281526)
(1.62471e-07 3.9075e-05 -0.00249568)
(-6.08745e-06 3.48505e-05 -0.00249096)
(7.88555e-06 -8.16049e-05 -0.00231542)
(-4.01021e-06 -5.5968e-07 -0.00233769)
(-2.17105e-06 -3.10461e-06 -0.00242041)
(-7.03459e-08 -2.07376e-06 -0.00254299)
(1.81863e-06 2.49866e-06 -0.0026948)
(4.41921e-06 1.50278e-05 -0.00287106)
(1.42925e-05 6.52857e-06 -0.0027246)
(8.7221e-06 7.78803e-05 -0.00242264)
(-2.98238e-06 -8.85903e-05 -0.00282352)
(2.81045e-05 -2.30424e-05 -0.00278828)
(-1.18697e-05 2.99681e-05 -0.00266599)
(0.000174995 0.000903024 -0.00312583)
(-0.000248822 -0.000861664 -0.00322391)
(0.00150029 0.000988169 -0.00369203)
(-0.00159889 -0.00100736 -0.00369858)
(0.00165403 0.00107002 -0.00404106)
(-3.0243e-05 -3.06799e-05 -0.00315818)
(-0.000482307 -0.000960295 -0.00335323)
(-7.6685e-05 1.21018e-05 -0.00280236)
(0.000133085 0.00102393 -0.00338141)
(-9.91626e-06 -8.82072e-06 -0.00293321)
(-1.44761e-05 -5.69475e-05 -0.00312125)
(2.80842e-06 1.08337e-05 -0.00318277)
(-0.000119392 7.63978e-06 -0.00299359)
(-0.000230163 1.48144e-05 -0.00319831)
(-0.000449829 1.73706e-05 -0.00343169)
(-0.00103013 -1.33763e-05 -0.00378536)
(-0.00105549 -0.000179079 -0.0037468)
(-0.00256055 0.00061383 -0.00371217)
(-0.00115839 -0.00027992 -0.00341339)
(-0.00100618 -0.00113323 -0.0032349)
(-2.9963e-05 -0.000152447 -0.00330615)
(-0.000394924 -0.000156979 -0.00350363)
(0.000324854 -0.00234846 -0.00282447)
(-0.00212266 -0.000652686 -0.00313398)
(-0.00127659 8.36809e-05 -0.00433069)
(-0.000604378 -0.000960709 -0.00391759)
(0.000950989 0.000705115 -0.00400995)
(7.63069e-05 3.32017e-05 -0.00412235)
(4.67124e-05 3.71781e-05 -0.00269718)
(-0.000988219 0.000853187 -0.00338754)
(0.00104401 0.00071513 -0.00356661)
(6.31446e-06 9.75682e-05 -0.00423678)
(-0.000125416 -8.08904e-05 -0.00278871)
(-0.0010834 0.000945714 -0.00352102)
(0.0010487 0.000850173 -0.00358488)
(1.91839e-06 0.000104694 -0.00425715)
(-0.000139351 -9.70994e-05 -0.00280016)
(-0.00105736 0.000858868 -0.00347689)
(0.00104544 0.000968923 -0.00362821)
(8.92118e-06 9.76251e-05 -0.00424373)
(-0.000226896 -0.000221743 -0.00285755)
(-0.00100893 0.000713567 -0.00343928)
(0.000745701 0.000987054 -0.00384934)
(-0.000607797 -0.000345225 -0.00528388)
(0.000507465 0.000531284 -0.0040268)
(0.000385509 -0.000462771 -0.0039325)
(0.00112298 0.000494507 -0.00495811)
(-0.000527739 -0.0019487 -0.00482491)
(-0.000301549 -0.0010566 -0.0038967)
(0.000166477 0.000184094 -0.002916)
(0.000663694 -0.000481337 -0.00416735)
(-0.00212435 0.00100782 -0.00384125)
(-0.000113788 -6.16515e-05 -0.00353971)
(-0.00124092 -0.00164673 -0.00363629)
(0.0011165 0.000891854 -0.00369193)
(0.00104258 -1.75618e-05 -0.00282227)
(0.000982968 -0.00105728 -0.00381673)
(0.00123667 -0.00104737 -0.00431332)
(0.000582261 -0.00151689 -0.003034)
(0.000120547 0.000599555 -0.00391873)
(0.000468769 -0.00082192 -0.00306096)
(0.0007014 -0.000533864 -0.00317435)
(0.00114248 0.000896322 -0.00421959)
(-0.000491848 -0.00177637 -0.0038822)
(0.000107061 -0.0002167 -0.00307971)
(0.000794917 0.00121623 -0.00396094)
(-0.000637953 -0.00143181 -0.0037245)
(2.76819e-06 -5.44598e-05 -0.00294676)
(0.00064858 0.00121169 -0.0036686)
(-0.000615164 -0.00122246 -0.00351758)
(-6.25671e-06 -1.32555e-05 -0.00275983)
(0.000587066 0.00114006 -0.00341819)
(-0.00056372 -0.00110343 -0.0033054)
(-3.10658e-06 -8.0512e-06 -0.00259298)
(0.000546918 0.00106504 -0.00320415)
(-0.000526144 -0.00102924 -0.00311664)
(-2.58186e-06 -5.54921e-06 -0.00244544)
(0.000514496 0.0010059 -0.00302926)
(-0.000504019 -0.00097562 -0.00295959)
(-6.35784e-06 6.10228e-06 -0.00233271)
(0.000473795 0.000964878 -0.00288744)
(-0.000512613 -0.000931428 -0.00284241)
(-3.96339e-05 5.12821e-05 -0.0022092)
(0.000388462 0.000961368 -0.00278233)
(-0.000580058 -0.000812965 -0.00272632)
(-0.000215093 0.000225529 -0.00210473)
(-6.8425e-06 0.000784768 -0.00260395)
(-0.000774235 -0.000435059 -0.00220065)
(-0.00047909 0.000826704 -0.00252898)
(0.000279901 0.000934356 -0.00239661)
(-0.000766141 -0.00116305 -0.00256813)
(0.000854723 0.00100243 -0.00301374)
(-0.000917889 -0.00118929 -0.00297664)
(2.62681e-05 3.09171e-05 -0.00221986)
(-0.000950929 0.000590085 -0.00285905)
(0.000973014 -0.000894481 -0.00216803)
(-1.43579e-05 0.000402751 -0.00271157)
(-0.000558589 0.000465969 -0.00248496)
(3.56946e-05 0.0005042 -0.00178891)
(0.000550644 0.000669408 -0.00229679)
(-0.000544709 0.000575667 -0.00237876)
(1.99272e-06 0.000405421 -0.00277294)
(3.28757e-06 0.000782026 -0.00227681)
(9.87492e-07 0.000466692 -0.00238772)
(8.27266e-07 -9.51025e-06 -0.00241011)
(1.32416e-06 -8.13549e-05 -0.00248999)
(1.35926e-06 -5.80564e-05 -0.00256069)
(1.36523e-06 -4.40112e-05 -0.00256673)
(2.19844e-06 -4.09245e-05 -0.00268621)
(4.176e-06 -6.41443e-05 -0.00284103)
(-4.52385e-06 -4.26672e-05 -0.00265227)
(9.84158e-06 -9.04067e-06 -0.00257129)
(-1.76748e-06 7.59665e-06 -0.00246739)
(0.000177817 0.00080975 -0.0029435)
(-0.0001861 -0.000816331 -0.003044)