/*--------------------------------*- C++ -*----------------------------------*\
| =========                 |                                                 |
| \\      /  F ield         | OpenFOAM: The Open Source CFD Toolbox           |
|  \\    /   O peration     | Version:  2306                                  |
|   \\  /    A nd           | Website:  www.openfoam.com                      |
|    \\/     M anipulation  |                                                 |
\*---------------------------------------------------------------------------*/
FoamFile
{
    version     2.0;
    format      ascii;
    arch        "LSB;label=32;scalar=64";
    class       volVectorField;
    location    "0.3";
    object      flux;
}
// * * * * * * * * * * * * * * * * * * * * * * * * * * * * * * * * * * * * * //

dimensions      [0 1 -1 1 0 0 0];

internalField   nonuniform List<vector> 
5322
(
(-1.77986e-06 4.39107e-06 -5.7349e-06)
(1.87266e-07 7.26172e-07 -4.08492e-06)
(1.36138e-07 2.64288e-07 -2.03364e-06)
(-5.88153e-09 2.55604e-07 -2.15682e-06)
(-4.39926e-09 1.28326e-07 -7.32725e-07)
(-1.11344e-09 4.28945e-08 -1.92556e-07)
(-1.18396e-10 1.02269e-08 -3.98553e-08)
(1.36656e-11 1.86843e-09 -6.64734e-09)
(8.39731e-12 2.76518e-10 -9.20295e-10)
(2.10594e-12 3.45992e-11 -1.11388e-10)
(4.57813e-13 3.43545e-12 -1.36627e-11)
(2.23512e-13 -9.05545e-13 -3.49493e-12)
(1.15007e-13 -1.49845e-13 -9.12238e-13)
(-3.30723e-13 -2.14654e-13 -2.17031e-12)
(3.04692e-13 -3.35808e-13 -2.95618e-12)
(2.56861e-12 2.47282e-12 -5.39444e-12)
(-1.10908e-12 2.2622e-12 -5.06741e-12)
(1.24637e-12 9.07928e-13 -5.75613e-12)
(-4.63325e-13 2.8706e-12 -1.36947e-11)
(1.44918e-11 -1.80344e-11 -4.36474e-11)
(-3.97657e-12 3.48867e-11 -1.48579e-10)
(1.33449e-10 -1.65673e-10 -4.38452e-10)
(-4.32312e-11 3.30854e-10 -1.37899e-09)
(1.02463e-09 -1.34258e-09 -3.68327e-09)
(-6.49384e-10 2.71201e-09 -1.04563e-08)
(6.39263e-09 -8.85776e-09 -2.48568e-08)
(-4.54619e-09 1.67032e-08 -6.33374e-08)
(3.25813e-08 -4.80468e-08 -1.35109e-07)
(-2.97023e-08 8.59667e-08 -3.04162e-07)
(1.30394e-07 -2.00441e-07 -5.7025e-07)
(-1.1487e-07 3.28761e-07 -1.12502e-06)
(4.2526e-07 -6.50758e-07 -1.8689e-06)
(-2.86928e-07 1.00182e-06 -3.17166e-06)
(1.12145e-06 -1.40792e-06 -4.48789e-06)
(3.20566e-07 1.72218e-06 -6.13422e-06)
(2.40065e-06 -1.28624e-06 -6.26716e-06)
(1.71257e-06 2.7092e-06 -7.98438e-06)
(-6.99402e-07 3.11915e-06 -7.40225e-06)
(1.80395e-06 1.61825e-06 -7.59402e-06)
(-1.3071e-07 1.93769e-06 -6.02459e-06)
(-1.7469e-06 2.30655e-06 -6.99478e-06)
(1.72173e-06 1.95892e-06 -7.21736e-06)
(-1.0278e-07 2.23437e-06 -5.88642e-06)
(-1.82538e-06 2.1604e-06 -7.20328e-06)
(1.84438e-06 2.06024e-06 -7.13393e-06)
(-4.46615e-08 2.27894e-06 -6.00477e-06)
(-1.92568e-06 2.09667e-06 -7.32031e-06)
(1.77142e-06 2.24179e-06 -6.95717e-06)
(-1.54783e-08 2.32951e-06 -5.97852e-06)
(-2.0334e-06 2.01357e-06 -7.31936e-06)
(-2.05271e-06 2.57316e-06 -8.72495e-06)
(-2.89546e-06 9.73425e-07 -5.25385e-06)
(-1.05479e-06 1.24458e-06 -7.75607e-06)
(1.62674e-06 -3.37215e-06 -6.03086e-06)
(-9.57628e-08 -1.34336e-07 -4.73252e-06)
(-2.55528e-06 -1.88993e-06 -5.63668e-06)
(-7.48429e-08 1.14928e-06 -7.68885e-06)
(2.4311e-06 -2.43257e-06 -5.48486e-06)
(-1.78163e-08 -7.11214e-08 -4.63092e-06)
(-2.39945e-06 -2.09595e-06 -5.56657e-06)
(-1.2401e-09 1.16729e-06 -7.73157e-06)
(2.35297e-06 -2.37459e-06 -5.54668e-06)
(-8.00826e-09 -6.09269e-08 -4.61695e-06)
(-2.37021e-06 -2.08496e-06 -5.4359e-06)
(3.86637e-09 1.17527e-06 -7.74561e-06)
(2.31774e-06 -2.47103e-06 -5.77195e-06)
(3.68276e-08 -1.07535e-07 -4.62386e-06)
(-2.36651e-06 -2.04877e-06 -5.20315e-06)
(1.6208e-07 1.20696e-06 -7.69108e-06)
(1.95795e-06 -2.8639e-06 -6.25629e-06)
(1.78409e-07 4.00357e-08 -3.91277e-06)
(-1.43272e-06 1.62602e-06 -5.02896e-06)
(1.62761e-06 8.84264e-07 -4.77285e-06)
(-1.66661e-06 1.26187e-06 -4.69357e-06)
(1.59523e-06 9.20937e-07 -4.71721e-06)
(-1.62444e-06 1.18481e-06 -4.69459e-06)
(1.6339e-06 9.78053e-07 -4.69767e-06)
(-1.63005e-06 1.18377e-06 -4.69512e-06)
(1.88529e-06 1.01744e-06 -4.82507e-06)
(-1.43338e-06 1.47607e-06 -4.70534e-06)
(5.93382e-07 2.73625e-08 -4.85748e-06)
(-1.37838e-06 8.31392e-07 -4.4479e-06)
(-1.02027e-06 1.13177e-06 -4.63026e-06)
(1.24433e-06 1.60812e-06 -5.22708e-06)
(7.00191e-08 -5.85482e-08 -2.89746e-06)
(-1.81388e-07 -3.76441e-07 -4.37009e-06)
(1.11965e-06 2.61168e-07 -7.78296e-06)
(-3.2997e-06 4.60072e-07 -5.83489e-06)
(-6.68769e-07 1.33092e-06 -5.57841e-06)
(3.06509e-06 2.34713e-07 -4.44019e-06)
(-1.45522e-07 3.53821e-07 -5.20667e-06)
(-2.72759e-09 4.25671e-08 -2.01411e-06)
(-1.23261e-08 4.02687e-09 -2.10076e-06)
(1.30936e-07 4.01657e-10 -2.08765e-06)
(1.07421e-06 1.26284e-06 -3.24711e-06)
(-4.55621e-08 -9.04346e-07 -4.14722e-06)
(1.64208e-07 3.01244e-08 -3.40043e-06)
(1.2842e-07 9.01477e-07 -4.18005e-06)
(1.14238e-06 3.03632e-08 -7.8693e-06)
(-2.88496e-06 -1.59805e-07 -5.62324e-06)
(-2.8806e-06 2.93547e-07 -5.74883e-06)
(4.91391e-06 3.34277e-08 -4.47235e-06)
(1.19144e-07 9.90982e-07 -4.22347e-06)
(8.40337e-07 -1.23269e-06 -3.23079e-06)
(1.38901e-06 1.10001e-06 -3.55519e-06)
(1.89482e-07 5.73805e-08 -3.33342e-06)
(4.18706e-08 -3.93631e-08 -3.44786e-06)
(1.09452e-08 -6.70547e-10 -2.18807e-06)
(6.54483e-10 2.80119e-09 -7.42994e-07)
(-1.30372e-09 2.19665e-09 -1.97642e-07)
(-7.07952e-10 8.45284e-10 -4.19973e-08)
(-2.10236e-10 2.22459e-10 -7.29297e-09)
(-4.38845e-11 4.40458e-11 -1.0587e-09)
(-7.07281e-12 6.92654e-12 -1.32936e-10)
(-1.20218e-12 1.1786e-12 -1.77815e-11)
(-2.23501e-13 2.14444e-13 -4.9388e-12)
(-1.18151e-12 1.20669e-12 -4.7171e-12)
(-5.17942e-13 2.63155e-13 -3.64757e-12)
(-2.66069e-14 1.11852e-14 -1.06605e-11)
(-3.19442e-13 2.81875e-13 -2.92465e-12)
(-2.11548e-13 6.44316e-13 -1.87698e-12)
(5.568e-15 1.96987e-13 -1.25611e-12)
(-1.65942e-13 6.29254e-14 -1.16817e-12)
(-8.10612e-14 -9.38304e-14 -9.59762e-13)
(-1.98576e-13 7.89866e-14 -8.79265e-13)
(1.56207e-13 5.50557e-14 -9.30778e-13)
(2.57e-14 2.0933e-13 -1.1467e-12)
(-1.7065e-13 1.72362e-15 -1.27576e-12)
(9.6433e-14 7.46497e-14 -1.30275e-12)
(-8.45065e-14 1.61107e-13 -1.47717e-12)
(-1.42801e-13 -1.02755e-13 -1.53492e-12)
(1.05704e-13 -4.39957e-15 -1.46248e-12)
(-1.47471e-13 9.37805e-14 -1.51164e-12)
(-1.11214e-13 -1.7804e-13 -1.46489e-12)
(8.94181e-14 -7.56284e-14 -1.26635e-12)
(-2.0312e-13 -7.78886e-15 -1.20503e-12)
(-8.15554e-14 -1.57807e-13 -1.1169e-12)
(7.19714e-14 -7.67737e-14 -8.67842e-13)
(-1.04249e-13 -1.93064e-13 -8.36363e-13)
(-7.26298e-14 1.63229e-13 -9.09959e-13)
(-2.10066e-13 3.37131e-14 -1.13697e-12)
(-2.39198e-13 -5.72058e-13 -1.87551e-12)
(-3.16556e-13 -3.19292e-13 -2.87758e-12)
(-5.53386e-13 -1.52687e-13 -3.60776e-12)
(-1.22621e-12 -1.16654e-12 -4.70078e-12)
(-4.60154e-14 1.18479e-15 -1.06073e-11)
(-2.96026e-13 -4.85461e-13 -3.59251e-12)
(-6.89576e-13 -1.69796e-13 -3.60418e-12)
(-8.09797e-13 3.78633e-13 -4.80495e-12)
(-1.1071e-12 -8.86294e-13 -5.24994e-12)
(3.92258e-14 -1.77613e-13 -1.27495e-11)
(-5.46092e-13 -1.92588e-13 -3.94169e-12)
(-5.16191e-13 1.72851e-13 -3.93831e-12)
(-1.0833e-12 8.76126e-13 -5.21811e-12)
(-7.98092e-13 -3.65682e-13 -4.82377e-12)
(7.67097e-14 1.078e-13 -1.27607e-11)
(-6.79425e-13 1.47837e-13 -3.63209e-12)
(-1.86345e-13 5.14649e-13 -3.59176e-12)
(-5.78762e-13 2.25594e-13 -1.87421e-12)
(3.20052e-13 2.80772e-13 -2.89966e-12)
(-2.44016e-12 2.51286e-12 -5.27383e-12)
(-2.24987e-12 -1.11974e-12 -5.01667e-12)
(5.11357e-12 5.81909e-12 -1.89982e-11)
(-2.12771e-11 -1.4231e-11 -5.55051e-11)
(-3.26884e-12 4.21314e-12 -1.60801e-11)
(-2.91792e-12 -5.03553e-13 -1.37281e-11)
(-8.56046e-13 1.18369e-12 -5.71624e-12)
(1.80093e-12 1.16574e-12 -4.25046e-12)
(-4.25354e-13 4.86029e-13 -1.34633e-12)
(5.09703e-13 3.0639e-13 -1.78963e-12)
(2.15432e-13 -3.25441e-13 -2.12865e-12)
(4.33525e-13 5.19152e-13 -2.28534e-12)
(-2.80731e-12 -1.9949e-12 -5.96697e-12)
(3.77711e-13 7.64256e-14 -3.60904e-12)
(-2.71386e-12 2.39986e-12 -6.03676e-12)
(2.6581e-12 -6.55578e-12 -2.21529e-11)
(4.07312e-12 7.32134e-12 -2.16419e-11)
(-2.26352e-11 -2.02501e-11 -6.16054e-11)
(1.85501e-13 7.68825e-13 -2.82616e-11)
(-2.10471e-11 2.24843e-11 -6.37532e-11)
(2.99963e-11 -6.36037e-11 -1.96525e-10)
(4.19686e-11 6.94609e-11 -1.94725e-10)
(-1.90444e-10 -1.89045e-10 -5.47591e-10)
(1.09331e-12 5.00476e-12 -2.57903e-10)
(-1.70534e-10 2.0071e-10 -5.60818e-10)
(2.90668e-10 -5.43634e-10 -1.61684e-09)
(3.84776e-10 5.82439e-10 -1.60904e-09)
(-1.43066e-09 -1.51166e-09 -4.2467e-09)
(4.76559e-11 2.80326e-11 -2.08828e-09)
(-1.24741e-09 1.56023e-09 -4.30978e-09)
(2.34043e-09 -3.95052e-09 -1.14104e-08)
(2.9954e-09 4.17167e-09 -1.13813e-08)
(-9.16752e-09 -1.00572e-08 -2.75664e-08)
(5.71846e-10 1.31862e-10 -1.4264e-08)
(-7.84105e-09 1.01685e-08 -2.78171e-08)
(1.52018e-08 -2.37625e-08 -6.66882e-08)
(1.91177e-08 2.4828e-08 -6.66189e-08)
(-4.87898e-08 -5.43408e-08 -1.45663e-07)
(4.34913e-09 5.05186e-10 -7.99133e-08)
(-4.11624e-08 5.40571e-08 -1.46468e-07)
(7.76383e-08 -1.15277e-07 -3.14227e-07)
(9.70355e-08 1.19508e-07 -3.14278e-07)
(-2.09419e-07 -2.31786e-07 -6.10381e-07)
(2.31896e-08 1.46155e-09 -3.57729e-07)
(-1.74468e-07 2.27247e-07 -6.12224e-07)
(3.02084e-07 -4.36229e-07 -1.15815e-06)
(3.7921e-07 4.49382e-07 -1.15979e-06)
(-6.92689e-07 -7.4593e-07 -1.96974e-06)
(8.66024e-08 3.37833e-09 -1.23903e-06)
(-5.65737e-07 7.21696e-07 -1.97368e-06)
(8.32931e-07 -1.23504e-06 -3.23101e-06)
(1.03229e-06 1.23919e-06 -3.22831e-06)
(-1.59767e-08 -9.01068e-07 -4.18022e-06)
(1.09545e-06 -7.85198e-09 -7.85759e-06)
(-2.84887e-06 -2.12782e-07 -5.61635e-06)
(-2.90965e-06 1.18959e-07 -5.60645e-06)
(4.90464e-06 -4.55471e-08 -4.47612e-06)
(-2.87901e-07 -2.67728e-09 -5.74797e-06)
(-2.96094e-07 8.86803e-09 -5.74584e-06)
(-1.13636e-08 1.10944e-08 -2.10141e-06)
(1.4321e-07 3.34403e-09 -2.09632e-06)
(1.08146e-06 1.27245e-06 -3.25838e-06)
(2.88295e-08 -8.87329e-07 -4.18211e-06)
(1.8114e-07 6.23629e-09 -3.40676e-06)
(-3.42911e-08 1.12321e-06 -4.30612e-06)
(1.07282e-06 -2.12015e-07 -7.9124e-06)
(-2.89433e-06 -1.44931e-07 -5.6736e-06)
(-2.85404e-06 1.72584e-07 -5.58669e-06)
(4.87913e-06 -7.47143e-08 -4.49797e-06)
(9.60964e-08 9.03511e-07 -4.16312e-06)
(8.34567e-07 -1.24724e-06 -3.23265e-06)
(1.6158e-07 1.11722e-08 -3.39491e-06)
(5.59508e-08 5.14633e-09 -3.32758e-06)
(1.19622e-08 1.33012e-08 -2.18427e-06)
(1.11024e-09 1.67773e-09 -7.45552e-07)
(-1.21241e-09 -9.4279e-10 -1.98889e-07)
(-7.1844e-10 -6.16321e-10 -4.22915e-08)
(-2.18817e-10 -1.91645e-10 -7.33686e-09)
(-4.60805e-11 -4.08073e-11 -1.0629e-09)
(-7.43163e-12 -6.64288e-12 -1.33129e-10)
(-1.26301e-12 -1.14506e-12 -1.77676e-11)
(-2.34178e-13 -2.15082e-13 -4.92271e-12)
(3.23513e-13 -7.57407e-13 -4.82214e-12)
(-8.89788e-13 -1.07255e-12 -5.26765e-12)
(8.66987e-13 -1.06533e-12 -5.26502e-12)
(-3.4462e-13 -7.7121e-13 -4.84602e-12)
(1.41962e-13 1.27123e-13 -1.29067e-11)
(1.91984e-13 -4.89359e-13 -4.01029e-12)
(1.5911e-13 -6.61551e-13 -3.68224e-12)
(7.15957e-14 -7.57903e-13 -2.39814e-12)
(-1.03255e-13 -1.30086e-13 -1.60169e-12)
(-1.03871e-14 -2.52866e-13 -5.26899e-12)
(-2.05685e-13 -4.80504e-13 -4.01084e-12)
(-1.55638e-13 1.30481e-13 -1.28712e-11)
(-1.7429e-13 -6.61776e-13 -3.66128e-12)
(-8.47443e-14 -2.35781e-13 -4.80713e-12)
(-1.04468e-14 -1.654e-13 -1.28655e-12)
(-7.795e-14 8.72038e-14 -1.30321e-12)
(-1.68461e-13 -8.02889e-14 -1.50856e-12)
(-7.92956e-14 -7.64446e-13 -2.39233e-12)
(8.87693e-14 -1.37453e-13 -1.5771e-12)
(-1.15013e-14 1.23434e-13 -1.53221e-12)
(-1.00307e-14 1.82862e-13 -1.04134e-12)
(4.55115e-13 3.42112e-13 -2.47771e-12)
(-2.44774e-12 -2.88086e-12 -6.23752e-12)
(2.42071e-12 -2.86495e-12 -6.2372e-12)
(-1.98349e-12 -2.75725e-12 -6.15175e-12)
(7.52452e-12 4.11971e-12 -2.23078e-11)
(-2.02187e-11 -2.1906e-11 -6.30661e-11)
(7.08114e-11 4.16042e-11 -1.99307e-10)
(-1.87768e-10 -1.82352e-10 -5.56506e-10)
(5.88199e-10 3.75712e-10 -1.63563e-09)
(-1.49524e-09 -1.36137e-09 -4.28721e-09)
(4.17642e-09 2.89093e-09 -1.14999e-08)
(-9.92368e-09 -8.69383e-09 -2.76891e-08)
(2.46845e-08 1.82979e-08 -6.70101e-08)
(-5.35461e-08 -4.62192e-08 -1.45825e-07)
(1.1829e-07 9.24684e-08 -3.15276e-07)
(-2.28323e-07 -1.98791e-07 -6.09884e-07)
(4.44079e-07 3.61677e-07 -1.16224e-06)
(-7.35747e-07 -6.61822e-07 -1.96609e-06)
(1.24855e-06 1.03185e-06 -3.25616e-06)
(-8.99636e-07 -1.88851e-08 -4.14503e-06)
(2.38611e-08 1.15826e-06 -7.87628e-06)
(9.00052e-07 8.11341e-08 -4.20216e-06)
(2.52618e-08 1.64629e-07 -3.40015e-06)
(-1.21923e-06 8.94396e-07 -3.22305e-06)
(7.14628e-07 -6.05644e-07 -1.97959e-06)
(3.81693e-09 8.77585e-08 -1.23985e-06)
(-4.30554e-07 3.27319e-07 -1.15822e-06)
(2.24885e-07 -1.88096e-07 -6.1381e-07)
(1.56016e-09 2.37733e-08 -3.58239e-07)
(-1.13876e-07 8.49605e-08 -3.14904e-07)
(5.36019e-08 -4.4437e-08 -1.47012e-07)
(5.45502e-10 4.58666e-09 -8.01802e-08)
(-2.35176e-08 1.68421e-08 -6.70292e-08)
(1.01308e-08 -8.45421e-09 -2.80153e-08)
(1.48553e-10 6.4025e-10 -1.4363e-08)
(-3.92394e-09 2.64033e-09 -1.15225e-08)
(1.56517e-09 -1.34167e-09 -4.36454e-09)
(3.21019e-11 6.20021e-11 -2.11384e-09)
(-5.43123e-10 3.36791e-10 -1.64354e-09)
(2.02882e-10 -1.82662e-10 -5.71729e-10)
(5.65456e-12 3.42643e-12 -2.62687e-10)
(-6.40237e-11 3.59574e-11 -2.013e-10)
(2.28596e-11 -2.2392e-11 -6.5415e-11)
(8.48705e-13 4.85727e-13 -2.89557e-11)
(-6.60935e-12 3.28867e-12 -2.28282e-11)
(-2.69213e-14 -1.5274e-12 -9.90511e-12)
(6.53591e-12 3.22716e-12 -2.27293e-11)
(-2.2943e-11 -2.23955e-11 -6.54064e-11)
(-9.54461e-13 4.83911e-13 -2.88506e-11)
(-7.51473e-12 4.11019e-12 -2.21925e-11)
(1.95125e-12 -2.73229e-12 -6.0971e-12)
(-1.11808e-13 3.92423e-13 -3.70512e-12)
(-5.36136e-13 4.20742e-13 -2.34618e-12)
(-1.16566e-13 1.25597e-13 -8.91625e-13)
(3.19703e-13 2.14486e-13 -2.152e-12)
(-2.54787e-12 -2.49436e-12 -5.35296e-12)
(4.97896e-12 2.39696e-12 -2.02456e-11)
(-2.33146e-11 -1.98601e-11 -6.10039e-11)
(5.26276e-11 3.10108e-11 -1.86837e-10)
(-2.0632e-10 -1.65294e-10 -5.5123e-10)
(4.84367e-10 3.15299e-10 -1.58403e-09)
(-1.58222e-09 -1.23844e-09 -4.30015e-09)
(3.71546e-09 2.57912e-09 -1.14136e-08)
(-1.01415e-08 -7.92355e-09 -2.79744e-08)
(2.32445e-08 1.68558e-08 -6.76402e-08)
(-5.30818e-08 -4.23054e-08 -1.47821e-07)
(1.16086e-07 8.70361e-08 -3.22157e-07)
(-2.20795e-07 -1.8215e-07 -6.16805e-07)
(4.47078e-07 3.44269e-07 -1.19695e-06)
(-6.93382e-07 -5.85443e-07 -1.96474e-06)
(1.25557e-06 9.36444e-07 -3.31716e-06)
(-8.67745e-07 8.57847e-08 -4.18335e-06)
(-2.83561e-07 9.21585e-07 -7.86678e-06)
(3.45186e-07 -2.39597e-07 -4.52886e-06)
(3.9156e-08 1.90701e-07 -3.36096e-06)
(-1.16473e-06 1.33003e-06 -3.66867e-06)
(6.56611e-07 -8.47815e-07 -2.20634e-06)
(-9.29281e-10 1.01274e-07 -1.22678e-06)
(-3.97075e-07 5.15756e-07 -1.30669e-06)
(2.07975e-07 -2.49322e-07 -6.67667e-07)
(-5.04672e-09 2.69137e-08 -3.52008e-07)
(-1.01146e-07 1.34297e-07 -3.47371e-07)
(4.69937e-08 -5.53131e-08 -1.55284e-07)
(-2.29e-09 5.272e-09 -7.76858e-08)
(-2.07675e-08 2.6659e-08 -7.20305e-08)
(8.26624e-09 -9.92415e-09 -2.86219e-08)
(-6.46531e-10 7.87276e-10 -1.36404e-08)
(-3.48197e-09 4.22531e-09 -1.19693e-08)
(1.17176e-09 -1.47168e-09 -4.26226e-09)
(-1.37528e-10 8.71374e-11 -1.95025e-09)
(-4.82862e-10 5.4397e-10 -1.62129e-09)
(1.37187e-10 -1.84334e-10 -5.23307e-10)
(-2.3206e-11 6.99094e-12 -2.32862e-10)
(-5.67678e-11 5.8032e-11 -1.84424e-10)
(1.36057e-11 -2.04931e-11 -5.49267e-11)
(-3.27726e-12 8.9743e-13 -2.42155e-11)
(-5.88253e-12 5.07799e-12 -1.88527e-11)
(1.0382e-12 -2.17267e-12 -4.95128e-12)
(-3.14035e-13 3.26999e-13 -2.90073e-12)
(-3.10508e-13 5.16424e-13 -1.78171e-12)
(2.82696e-14 3.05348e-13 -9.14068e-13)
(1.18515e-13 -5.31139e-14 -1.27404e-12)
(-1.12811e-12 1.74152e-12 -4.03813e-12)
(-5.41412e-13 -4.30204e-13 -1.28514e-12)
(-3.2228e-13 -2.6148e-13 -1.47661e-12)
(3.58732e-13 8.51136e-13 -3.01199e-12)
(-2.58712e-12 -1.59459e-12 -4.04933e-12)
(2.51105e-12 2.57441e-12 -1.56331e-11)
(-2.30476e-11 -1.41419e-11 -5.09535e-11)
(-1.61681e-11 1.73334e-11 -5.18972e-11)
(-2.39842e-11 -2.38384e-11 -5.91844e-11)
(-8.4318e-14 -2.37248e-12 -2.4485e-11)
(2.28879e-12 -7.67548e-12 -1.83523e-11)
(2.47136e-12 4.9659e-12 -1.95454e-11)
(-2.92868e-12 -2.59069e-12 -5.22576e-12)
(1.91788e-13 -2.20233e-13 -2.89721e-12)
(-1.93652e-12 1.46855e-12 -4.81173e-12)
(-1.69957e-12 -7.65388e-13 -7.0076e-12)
(-1.73455e-12 -1.19315e-12 -9.68493e-12)
(-3.73773e-13 -3.00447e-13 -3.42575e-12)
(-8.75863e-14 -6.82137e-14 -1.16159e-12)
(-1.35509e-13 -6.72816e-14 -1.48984e-12)
(-2.70342e-13 -8.02208e-14 -4.71741e-12)
(-2.69803e-12 -7.21443e-13 -1.25203e-11)
(-1.65829e-12 -6.90726e-13 -8.78038e-12)
(-2.55328e-12 1.93326e-12 -5.86192e-12)
(-3.01549e-12 -2.45828e-12 -6.07081e-12)
(3.46124e-12 6.42548e-12 -2.20101e-11)
(-2.41724e-11 -2.29875e-11 -6.36971e-11)
(-1.62376e-11 -5.59531e-13 -8.40074e-11)
(3.80893e-11 6.26106e-11 -1.95385e-10)
(-1.99854e-10 -2.04636e-10 -5.60852e-10)
(3.61923e-10 5.39069e-10 -1.60938e-09)
(-1.47971e-09 -1.58318e-09 -4.31642e-09)
(-8.18515e-10 -1.55538e-11 -5.40018e-09)
(2.88522e-09 3.95659e-09 -1.13859e-08)
(-9.37103e-09 -1.02607e-08 -2.78836e-08)
(1.87016e-08 2.40342e-08 -6.67357e-08)
(-4.93887e-08 -5.42891e-08 -1.46794e-07)
(-1.3854e-08 7.65526e-11 -1.72108e-07)
(9.57145e-08 1.17271e-07 -3.15066e-07)
(-2.09478e-07 -2.27792e-07 -6.12689e-07)
(3.72851e-07 4.42461e-07 -1.16101e-06)
(-6.78995e-07 -7.25539e-07 -1.97172e-06)
(1.34069e-07 -4.07432e-09 -2.08867e-06)
(-1.17144e-08 6.72122e-11 -2.09401e-06)
(-2.03698e-08 8.77005e-10 -7.11e-07)
(-1.8787e-08 3.43787e-09 -7.14964e-07)
(-1.17878e-08 -2.08079e-11 -1.89009e-07)
(-1.40703e-08 2.80379e-10 -1.73318e-07)
(1.00046e-07 1.18603e-07 -3.18689e-07)
(-2.16921e-07 -2.30506e-07 -6.17988e-07)
(2.51159e-08 -8.03323e-10 -3.61635e-07)
(-1.73663e-07 2.71917e-07 -6.2726e-07)
(2.91694e-07 -5.21387e-07 -1.18302e-06)
(3.9874e-07 4.57767e-07 -1.18235e-06)
(-6.82572e-07 -7.21414e-07 -1.9703e-06)
(9.95076e-08 5.12447e-09 -1.2543e-06)
(-6.0007e-07 8.92114e-07 -2.04198e-06)
(7.58942e-07 -1.41318e-06 -3.25678e-06)
(1.56471e-06 9.39195e-07 -3.82039e-06)
(1.01061e-07 -8.53389e-07 -4.25658e-06)
(2.66115e-07 -2.24754e-06 -8.39669e-06)
(-3.1444e-06 -1.97089e-07 -5.95409e-06)
(-2.93812e-06 1.07605e-07 -5.53815e-06)
(4.79817e-06 -7.77706e-07 -4.75678e-06)
(-3.62374e-07 -2.23242e-07 -5.81244e-06)
(1.00929e-08 -2.09013e-10 -2.06012e-06)
(3.18137e-08 6.7174e-07 -1.94485e-06)
(-6.2107e-07 6.87238e-07 -2.30133e-06)
(8.23873e-08 3.46306e-08 -1.10413e-06)
(1.39525e-07 -5.25157e-07 -1.30188e-06)
(-1.57056e-07 2.33955e-07 -6.53918e-07)
(8.32923e-10 -7.2126e-09 -2.96744e-07)
(3.58489e-08 -1.04203e-07 -3.32187e-07)
(-3.48377e-08 5.24065e-08 -1.45231e-07)
(-2.76107e-09 -3.55384e-09 -6.28866e-08)
(5.70658e-09 -1.84669e-08 -6.6911e-08)
(-6.6319e-09 9.38502e-09 -2.60211e-08)
(-8.77824e-10 -8.50644e-10 -1.06855e-08)
(5.54348e-10 -2.67461e-09 -1.07188e-08)
(-1.02716e-09 1.35828e-09 -3.71628e-09)
(-1.94768e-10 -1.65165e-10 -1.45677e-09)
(5.17981e-11 -3.27888e-10 -1.37781e-09)
(-1.30521e-10 1.66122e-10 -4.306e-10)
(-3.32449e-11 -2.52225e-11 -1.63228e-10)
(2.7629e-12 -3.08265e-11 -1.43356e-10)
(-1.37249e-11 1.75174e-11 -4.14858e-11)
(-4.84677e-12 -3.39489e-12 -1.55258e-11)
(5.02966e-13 -2.57341e-12 -1.29302e-11)
(-2.09999e-13 1.19962e-13 -5.02481e-12)
(-4.48858e-14 2.05814e-13 -4.20217e-12)
(-3.93184e-13 -2.61401e-12 -1.19223e-11)
(-1.45409e-12 -2.83481e-12 -1.80406e-11)
(3.94513e-12 5.83453e-12 -3.37979e-11)
(-8.24285e-12 -3.22506e-11 -1.32127e-10)
(3.54381e-11 3.0988e-11 -1.56785e-10)
(-2.05861e-10 -1.34645e-10 -4.93388e-10)
(3.94132e-10 3.13514e-10 -1.43869e-09)
(-1.63346e-09 -1.09182e-09 -4.08164e-09)
(-1.06248e-09 1.51907e-09 -3.98896e-09)
(-1.51549e-09 -1.63431e-09 -4.22656e-09)
(3.52361e-11 -9.37075e-11 -1.98013e-09)
(2.65305e-10 -6.41977e-10 -1.52419e-09)
(3.34081e-10 4.80132e-10 -1.53633e-09)
(-2.01602e-10 -2.11545e-10 -5.37271e-10)
(-1.03606e-12 -1.67728e-11 -2.35438e-10)
(-1.37217e-10 1.76139e-10 -4.89278e-10)
(-1.24924e-10 -2.46689e-11 -6.32898e-10)
(-1.0536e-10 -7.07079e-11 -8.42293e-10)
(-1.49862e-11 -1.02343e-11 -9.70324e-11)
(-9.12862e-12 -9.4648e-12 -5.78645e-11)
(-1.32148e-11 -1.7297e-11 -1.01807e-10)
(-3.71417e-12 -5.64468e-12 -5.79036e-11)
(-3.40143e-12 -3.02529e-12 -4.87171e-11)
(-1.42572e-11 -3.03798e-12 -6.66281e-11)
(-3.20963e-11 -2.69452e-12 -9.09342e-11)
(-2.97517e-12 -6.901e-13 -1.03692e-11)
(5.09422e-13 -2.44674e-13 -2.36625e-12)
(9.99505e-14 -1.17115e-13 -5.74826e-13)
(1.35775e-13 3.25201e-13 -1.69575e-12)
(6.61327e-14 6.05304e-14 -1.08613e-12)
(1.04077e-12 -2.34851e-13 -3.41369e-12)
(-3.94034e-13 -3.09512e-14 -6.79977e-12)
(3.42914e-12 -2.73853e-12 -2.75405e-11)
(2.7261e-11 -2.44717e-11 -2.71287e-10)
(-1.52296e-10 -3.14205e-11 -6.56724e-10)
(-2.82922e-10 -3.05644e-12 -8.16125e-10)
(-2.08743e-09 9.00789e-11 -6.35304e-09)
(-1.17783e-09 -2.15754e-10 -5.46109e-09)
(2.29612e-10 -1.96478e-10 -2.36194e-09)
(-8.75358e-11 -3.10071e-10 -1.27002e-09)
(-2.33857e-11 -1.44825e-10 -1.76414e-09)
(3.4813e-10 6.15507e-10 -3.29982e-09)
(-6.22601e-10 -2.54027e-09 -9.82977e-09)
(3.41434e-09 2.54858e-09 -1.09975e-08)
(-1.08899e-08 -7.28906e-09 -2.77203e-08)
(2.32095e-08 1.65877e-08 -6.79065e-08)
(-6.01422e-08 -3.94755e-08 -1.51381e-07)
(-3.87252e-08 6.1096e-08 -1.4643e-07)
(-5.13765e-08 -5.55305e-08 -1.47635e-07)
(4.39662e-09 -1.08217e-09 -7.97469e-08)
(1.45636e-08 -2.82548e-08 -6.70446e-08)
(1.89565e-08 2.35317e-08 -6.65993e-08)
(-9.69612e-09 -1.05582e-08 -2.77455e-08)
(5.32163e-10 -3.94613e-10 -1.39342e-08)
(-7.03153e-09 1.07514e-08 -2.69147e-08)
(-3.89181e-09 -7.0788e-11 -3.32478e-08)
(-2.35945e-09 -1.63686e-09 -3.75022e-08)
(-5.80895e-10 -3.90085e-10 -6.1908e-09)
(-3.73611e-10 -1.92288e-10 -4.41813e-09)
(-6.83598e-10 -1.3533e-09 -6.75919e-09)
(-2.04351e-10 -6.70512e-10 -4.96747e-09)
(-2.72972e-10 -4.17587e-10 -4.39028e-09)
(-1.06397e-10 -1.72104e-10 -8.9716e-10)
(-3.75835e-11 -7.94574e-11 -5.8456e-10)
(-3.92765e-11 -4.9965e-11 -5.05359e-10)
(4.11655e-11 6.53631e-11 -3.70549e-10)
(-6.7732e-12 -2.11442e-11 -1.94555e-10)
(-6.39876e-11 -5.27842e-11 -5.51647e-10)
(-1.05123e-11 3.71637e-11 -3.13448e-10)
(-2.41416e-12 -3.37584e-11 -1.11816e-10)
(-5.13335e-13 -3.32023e-12 -1.37108e-11)
(-2.35308e-13 9.19724e-13 -3.49801e-12)
(-2.30463e-13 1.22476e-12 -4.43506e-12)
(-7.12895e-13 1.92489e-12 -2.74284e-12)
(-1.47535e-12 -9.11988e-13 -1.15655e-11)
(-1.29291e-12 -1.03326e-12 -5.54879e-12)
(-1.97622e-12 3.7968e-12 -3.46954e-11)
(-1.14778e-12 1.91957e-12 -3.8507e-11)
(1.99776e-11 -2.16231e-11 -6.26088e-11)
(-3.1238e-12 -1.53571e-11 -8.22095e-11)
(-7.07753e-11 4.18106e-11 -1.98887e-10)
(6.36324e-11 3.55039e-11 -2.00818e-10)
(-2.02901e-10 -1.82487e-10 -5.72005e-10)
(-5.99864e-12 3.35776e-12 -2.62446e-10)
(1.87609e-10 -1.81398e-10 -5.55562e-10)
(-1.54765e-11 -1.21203e-10 -7.15519e-10)
(-5.87948e-10 3.78076e-10 -1.63828e-09)
(5.44216e-10 3.35316e-10 -1.64381e-09)
(-1.5592e-09 -1.33962e-09 -4.36794e-09)
(-2.86366e-11 6.22889e-11 -2.11793e-09)
(1.50973e-09 -1.36652e-09 -4.30388e-09)
(-4.85839e-11 -7.75233e-10 -5.42091e-09)
(-4.16924e-09 2.90477e-09 -1.15504e-08)
(3.96031e-09 2.64975e-09 -1.15521e-08)
(-1.00591e-08 -8.4456e-09 -2.80333e-08)
(-8.84729e-11 6.46591e-10 -1.44222e-08)
(1.01049e-08 -8.80109e-09 -2.79201e-08)
(1.45173e-11 -3.80703e-09 -3.41491e-08)
(-2.46113e-08 1.83222e-08 -6.73988e-08)
(2.38625e-08 1.70359e-08 -6.73436e-08)
(-5.31237e-08 -4.44927e-08 -1.46983e-07)
(-6.06449e-11 4.65166e-09 -8.06043e-08)
(5.48235e-08 -4.71518e-08 -1.47525e-07)
(1.0974e-09 -1.24356e-08 -1.73903e-07)
(-1.17898e-07 9.17333e-08 -3.1689e-07)
(1.15825e-07 8.6886e-08 -3.17051e-07)
(-2.2293e-07 -1.8955e-07 -6.12169e-07)
(9.43281e-10 2.42155e-08 -3.6005e-07)
(2.33597e-07 -2.03252e-07 -6.1814e-07)
(4.94581e-09 -8.94497e-09 -6.95732e-07)
(-4.42176e-07 3.49449e-07 -1.16295e-06)
(4.36392e-07 3.40004e-07 -1.16792e-06)
(-7.10319e-07 -6.20223e-07 -1.96625e-06)
(4.38445e-09 8.92216e-08 -1.24302e-06)
(7.42684e-07 -6.64405e-07 -1.99042e-06)
(1.80811e-10 1.82368e-07 -2.10008e-06)
(-1.23787e-06 9.49219e-07 -3.22542e-06)
(1.22069e-06 9.48509e-07 -3.25055e-06)
(-8.96551e-07 3.96705e-08 -4.17961e-06)
(-2.15495e-09 1.64748e-07 -3.39485e-06)
(8.97828e-07 4.55563e-09 -4.19135e-06)
(-7.2819e-08 4.9042e-06 -4.53457e-06)
(-2.31358e-07 -2.86742e-06 -5.66699e-06)
(-6.63182e-08 -3.00339e-06 -5.49257e-06)
(-3.14861e-07 3.77114e-06 -4.53658e-06)
(-2.40267e-06 1.00334e-06 -5.66468e-06)
(3.71834e-07 2.87175e-07 -3.12924e-06)
(3.45664e-08 -2.01211e-06 -3.70414e-06)
(-1.50575e-07 -5.82834e-07 -2.28345e-06)
(-2.86477e-07 -3.66237e-07 -2.15338e-06)
(-1.03801e-08 5.27462e-07 -2.18657e-06)
(-8.3398e-07 -5.84547e-07 -2.03681e-06)
(2.46728e-07 -5.13655e-09 -2.1846e-06)
(-8.0567e-07 8.13695e-08 -2.51657e-06)
(-8.30619e-07 -2.39375e-07 -2.54633e-06)
(4.12562e-09 -2.08512e-07 -1.60792e-06)
(-1.78229e-07 -4.055e-08 -8.34901e-07)
(-2.68428e-07 4.09189e-08 -8.53562e-07)
(-6.48226e-08 8.18593e-09 -2.11074e-07)
(-3.66118e-08 -6.13963e-09 -1.97556e-07)
(9.49613e-09 -7.38447e-09 -9.78695e-08)
(-7.13799e-09 -1.32595e-09 -3.66734e-08)
(-1.27606e-08 1.10018e-09 -4.0775e-08)
(-1.10821e-08 -2.4554e-10 -4.09849e-08)
(-1.8189e-09 -1.17639e-10 -6.58256e-09)
(-2.54923e-10 -2.83401e-11 -8.86283e-10)
(-3.14917e-11 -5.09432e-12 -1.05735e-10)
(-3.19142e-12 -8.53157e-13 -1.29245e-11)
(9.07345e-13 -3.38148e-13 -3.34331e-12)
(1.48159e-13 -1.42567e-13 -8.5178e-13)
(2.27833e-13 3.09825e-13 -2.01734e-12)
(2.51505e-13 -4.74482e-13 -1.64506e-12)
(8.19433e-13 -4.05597e-13 -4.0952e-12)
(9.99659e-13 -1.73121e-13 -4.99599e-12)
(3.48813e-13 -5.72478e-13 -2.28183e-12)
(3.5303e-13 4.69228e-13 -2.41546e-12)
(3.43783e-13 -1.05735e-13 -3.58285e-12)
(-7.87606e-13 -6.99715e-14 -2.32886e-12)
(-3.96725e-14 -4.707e-14 -3.25333e-12)
(-1.2851e-13 -1.16757e-13 -2.11965e-12)
(-7.83442e-14 -1.27025e-13 -1.52467e-12)
(-3.33728e-14 -1.2775e-14 -2.64512e-12)
(-6.65052e-13 -1.96717e-13 -1.832e-12)
(-4.81128e-14 -1.94748e-14 -3.27948e-12)
(-2.09573e-15 -1.4593e-13 -1.72541e-12)
(-1.07951e-15 -1.45813e-13 -2.3722e-12)
(-4.67367e-15 -2.38484e-13 -5.46476e-12)
(-2.90531e-13 9.62209e-15 -5.33656e-12)
(-6.22864e-13 -6.07424e-13 -5.862e-12)
(-6.10369e-13 6.09346e-13 -5.85342e-12)
(-2.76184e-13 7.61717e-15 -5.32106e-12)
(2.57037e-13 7.81858e-15 -5.32446e-12)
(2.99923e-13 2.8746e-13 -4.834e-12)
(2.14174e-13 2.02437e-13 -1.60968e-11)
(5.98465e-13 5.98001e-13 -5.84718e-12)
(2.52324e-14 2.53659e-13 -5.31633e-12)
(1.7887e-14 -2.58215e-13 -5.33035e-12)
(2.19033e-13 -2.00672e-13 -1.60978e-11)
(6.0079e-13 -6.07163e-13 -5.86444e-12)
(-7.55979e-15 -5.82355e-15 -6.04251e-12)
(-1.58058e-14 2.88896e-15 -2.12405e-11)
(-1.85341e-14 -1.32184e-12 -1.94138e-11)
(-1.60115e-14 -2.6945e-12 -1.37112e-11)
(-7.74754e-13 -2.4296e-12 -1.26674e-11)
(-5.69757e-13 -1.53216e-12 -9.10203e-12)
(-4.78593e-12 -1.96016e-11 -1.14524e-10)
(-2.89422e-11 -1.39055e-10 -9.49627e-10)
(-1.29936e-10 -7.95416e-10 -6.72463e-09)
(-3.66871e-10 -3.47817e-09 -3.95737e-08)
(-2.67611e-10 -1.0485e-08 -1.88943e-07)
(-5.9811e-09 -4.757e-09 -1.82834e-07)
(-5.58652e-09 7.02038e-09 -1.50357e-07)
(-1.45749e-08 -4.6496e-08 -2.10247e-07)
(-1.72569e-09 -2.22804e-08 -1.74803e-07)
(-7.0282e-09 -1.24743e-08 -1.60437e-07)
(1.20836e-08 3.10913e-08 -1.32753e-07)
(-2.03309e-08 -8.05832e-08 -3.03775e-07)
(1.25468e-07 8.51026e-08 -3.36162e-07)
(-2.65962e-07 -1.74056e-07 -6.45686e-07)
(5.30681e-07 3.34045e-07 -1.31088e-06)
(1.98535e-08 -2.98125e-08 -1.35748e-06)
(-1.54209e-07 -3.51621e-07 -1.17424e-06)
(-4.36115e-08 -5.86355e-08 -6.76901e-07)
(4.22439e-08 1.57087e-07 -6.04648e-07)
(5.59679e-09 -1.24232e-08 -3.65905e-07)
(3.75644e-08 -4.02604e-08 -4.53834e-07)
(4.42572e-08 4.05405e-09 -4.4223e-07)
(-5.61271e-08 8.48125e-10 -2.06574e-07)
(-2.27975e-07 9.30776e-09 -8.14326e-07)
(-7.2451e-07 2.1637e-08 -2.42315e-06)
(-2.04223e-06 -1.69972e-08 -5.31566e-06)
(-2.12494e-06 -2.59904e-07 -5.42718e-06)
(-4.17011e-06 9.8988e-07 -5.6728e-06)
(-1.24853e-06 -5.01807e-07 -3.82605e-06)
(-1.00492e-06 -1.20658e-06 -3.17823e-06)
(3.70202e-08 -2.4386e-07 -3.69907e-06)
(-3.25741e-07 -4.70079e-07 -4.79231e-06)
(4.8691e-07 -4.16692e-06 -4.71363e-06)
(-4.27308e-06 -1.22687e-06 -5.86142e-06)
(-2.67196e-06 1.72936e-07 -9.51669e-06)
(-1.36714e-06 -1.90082e-06 -8.53278e-06)
(1.78573e-06 1.35234e-06 -7.34016e-06)
(1.6145e-07 9.61443e-08 -7.68152e-06)
(8.60416e-08 6.94814e-08 -4.5042e-06)
(-1.69628e-06 1.60518e-06 -5.99392e-06)
(1.81964e-06 1.34828e-06 -6.2325e-06)
(3.02888e-08 1.55056e-07 -7.71425e-06)
(-2.18402e-07 -1.35721e-07 -4.55469e-06)
(-1.83618e-06 1.72345e-06 -6.1018e-06)
(1.79478e-06 1.55738e-06 -6.22166e-06)
(1.65199e-09 1.54225e-07 -7.74579e-06)
(-2.59341e-07 -1.73426e-07 -4.58123e-06)
(-1.81748e-06 1.58207e-06 -6.03499e-06)
(1.76998e-06 1.75892e-06 -6.30806e-06)
(-7.03007e-09 1.47227e-07 -7.76683e-06)
(-4.16454e-07 -3.90506e-07 -4.75477e-06)
(-1.75958e-06 1.34366e-06 -6.05049e-06)
(1.26244e-06 1.76224e-06 -6.84219e-06)
(-1.27025e-06 -6.48846e-07 -9.79539e-06)
(1.19285e-06 1.23075e-06 -8.75968e-06)
(9.10947e-07 -1.01771e-06 -8.59029e-06)
(2.45804e-06 1.13421e-06 -1.10642e-05)
(-1.17186e-06 -4.31899e-06 -1.10592e-05)
(-6.30861e-07 -2.30085e-06 -8.41823e-06)
(3.28174e-07 3.05683e-07 -5.7961e-06)
(1.24555e-06 -1.05432e-06 -7.7571e-06)
(-3.35152e-06 1.6413e-06 -6.03641e-06)
(-1.35611e-07 -9.432e-08 -4.73107e-06)
(-1.90351e-06 -2.56939e-06 -5.6272e-06)
(2.25347e-06 1.78022e-06 -6.97242e-06)
(2.32791e-06 -1.14416e-08 -5.98315e-06)
(2.01103e-06 -2.03342e-06 -7.30984e-06)
(2.57231e-06 -2.0542e-06 -8.73025e-06)
(9.71428e-07 -2.90053e-06 -5.25326e-06)
(3.44679e-08 6.01578e-07 -4.86029e-06)
(8.31918e-07 -1.38148e-06 -4.45015e-06)
(1.13212e-06 -1.0146e-06 -4.63359e-06)
(1.59787e-06 1.23559e-06 -5.22819e-06)
(-2.43514e-07 -1.48638e-06 -3.41983e-06)
(1.10697e-07 -3.39268e-07 -2.08429e-06)
(5.18609e-07 7.01372e-07 -2.07214e-06)
(-1.32598e-07 -4.18441e-07 -1.19798e-06)
(1.17401e-08 -8.37865e-08 -6.7567e-07)
(1.4349e-07 2.17984e-07 -6.07115e-07)
(-3.2089e-08 -9.41604e-08 -3.14765e-07)
(3.2875e-09 -2.01224e-08 -1.65097e-07)
(3.35276e-08 4.99365e-08 -1.39147e-07)
(-5.10206e-09 -1.75658e-08 -6.46701e-08)
(9.69608e-10 -4.1567e-09 -3.17809e-08)
(6.4506e-09 9.05071e-09 -2.53386e-08)
(-5.95392e-10 -2.69713e-09 -1.05623e-08)
(2.15826e-10 -6.75004e-10 -4.86628e-09)
(1.01768e-09 1.33723e-09 -3.71239e-09)
(-4.86908e-11 -3.38683e-10 -1.39156e-09)
(3.59467e-11 -8.37861e-11 -6.04175e-10)
(1.32781e-10 1.64949e-10 -4.42936e-10)