/*--------------------------------*- C++ -*----------------------------------*\
| =========                 |                                                 |
| \\      /  F ield         | OpenFOAM: The Open Source CFD Toolbox           |
|  \\    /   O peration     | Version:  2306                                  |
|   \\  /    A nd           | Website:  www.openfoam.com                      |
|    \\/     M anipulation  |                                                 |
\*---------------------------------------------------------------------------*/
FoamFile
{
    version     2.0;
    format      ascii;
    arch        "LSB;label=32;scalar=64";
    class       volScalarField;
    location    "0.3";
    object      gradTy;
}
// * * * * * * * * * * * * * * * * * * * * * * * * * * * * * * * * * * * * * //

dimensions      [0 -1 0 1 0 0 0];

internalField   nonuniform List<scalar> 
5322
(
0.0375305
0.0062066
0.00225888
0.00218465
0.00109681
0.00036662
8.74094e-05
1.59695e-05
2.3634e-06
2.9572e-07
2.93628e-08
-7.7397e-09
-1.28073e-09
-1.83465e-09
-2.87016e-09
2.11352e-08
1.93351e-08
7.76007e-09
2.45351e-08
-1.5414e-07
2.98177e-07
-1.41601e-06
2.82782e-06
-1.1475e-05
2.31796e-05
-7.57073e-05
0.000142762
-0.000410656
0.000734758
-0.00171317
0.00280992
-0.00556204
0.00856252
-0.0120335
0.0147195
-0.0109935
0.0231556
0.0266594
0.0138312
0.0165615
0.0197141
0.0167429
0.0190972
0.0184649
0.0176089
0.0194781
0.0179203
0.0191606
0.0199103
0.01721
0.0219928
0.00831987
0.0106374
-0.0288218
-0.00114817
-0.0161532
0.00982287
-0.0207912
-0.000607875
-0.0179141
0.00997682
-0.0202957
-0.000520743
-0.0178202
0.010045
-0.0211199
-0.000919105
-0.0175109
0.0103159
-0.0244778
0.000342185
0.0138976
0.00755781
0.0107852
0.00787126
0.0101266
0.00835942
0.0101177
0.00869609
0.012616
0.000233867
0.00710591
0.00967323
0.0137447
-0.000500412
-0.00321744
0.00223221
0.00393224
0.0113754
0.00200609
0.00302411
0.000363822
3.44177e-05
3.43296e-06
0.0107935
-0.00772945
0.000257473
0.00770493
0.000259515
-0.00136585
0.00250895
0.000285706
0.00846993
-0.0105358
0.00940181
0.000490431
-0.000336437
-5.73117e-06
2.39418e-05
1.87748e-05
7.22465e-06
1.90136e-06
3.76459e-07
5.92012e-08
1.00735e-08
1.83286e-09
1.03136e-08
2.24919e-09
9.55999e-11
2.40919e-09
5.50698e-09
1.68365e-09
5.37824e-10
-8.01969e-10
6.75099e-10
4.70561e-10
1.78914e-09
1.47318e-11
6.38031e-10
1.37699e-09
-8.78247e-10
-3.76032e-11
8.01543e-10
-1.52171e-09
-6.46396e-10
-6.65715e-11
-1.34878e-09
-6.56186e-10
-1.65012e-09
1.39512e-09
2.88146e-10
-4.88939e-09
-2.72899e-09
-1.30502e-09
-9.97045e-09
1.01264e-11
-4.14924e-09
-1.45125e-09
3.23618e-09
-7.57516e-09
-1.51806e-09
-1.64605e-09
1.47736e-09
7.48825e-09
-3.12548e-09
9.21366e-10
1.26357e-09
4.39871e-09
1.92816e-09
2.39976e-09
2.14774e-08
-9.57041e-09
4.97358e-08
-1.21632e-07
3.60097e-08
-4.30387e-09
1.0117e-08
9.96355e-09
4.1541e-09
2.61872e-09
-2.78155e-09
4.4372e-09
-1.70504e-08
6.5321e-10
2.05116e-08
-5.60323e-08
6.25756e-08
-1.73078e-07
6.57115e-09
1.92173e-07
-5.43622e-07
5.93683e-07
-1.61577e-06
4.27757e-08
1.71547e-06
-4.64645e-06
4.97811e-06
-1.29202e-05
2.39595e-07
1.33353e-05
-3.37651e-05
3.56553e-05
-8.59587e-05
1.12702e-06
8.69102e-05
-0.000203098
0.000212205
-0.000464451
4.31783e-06
0.000462027
-0.00098527
0.00102144
-0.00198108
1.24919e-05
0.00194228
-0.00372845
0.00384087
-0.00637547
2.88746e-05
0.00616834
-0.0105559
0.0105914
-0.00770144
-6.71109e-05
-0.00181865
0.00101674
-0.000389291
-2.28827e-05
7.57952e-05
9.48238e-05
2.85815e-05
0.0108757
-0.00758401
5.33016e-05
0.00960006
-0.0018121
-0.00123872
0.00147508
-0.000638584
0.00772231
-0.0106602
9.5489e-05
4.39857e-05
0.000113686
1.43396e-05
-8.05804e-06
-5.2677e-06
-1.63799e-06
-3.4878e-07
-5.67767e-08
-9.78685e-09
-1.83831e-09
-6.47357e-09
-9.16705e-09
-9.10537e-09
-6.59154e-09
1.08652e-09
-4.18255e-09
-5.65428e-09
-6.4778e-09
-1.11185e-09
-2.16125e-09
-4.10687e-09
1.11522e-09
-5.65621e-09
-2.01522e-09
-1.41367e-09
7.45332e-10
-6.8623e-10
-6.53372e-09
-1.17481e-09
1.05499e-09
1.56292e-09
2.92404e-09
-2.46228e-08
-2.44868e-08
-2.35662e-08
3.52112e-08
-1.87231e-07
3.55591e-07
-1.55856e-06
3.21122e-06
-1.16356e-05
2.47088e-05
-7.43062e-05
0.000156393
-0.000395036
0.000790328
-0.00169907
0.00309125
-0.0056566
0.00881925
-0.000161411
0.00989963
0.000693454
0.00140709
0.00764441
-0.00517644
0.000750073
0.0027976
-0.00160765
0.00020319
0.000726158
-0.000379803
3.92022e-05
0.000143949
-7.22582e-05
5.47222e-06
2.2567e-05
-1.14673e-05
5.29933e-07
2.87856e-06
-1.56121e-06
2.92858e-08
3.07329e-07
-1.91385e-07
4.15151e-09
2.81083e-08
-1.30547e-08
2.75826e-08
-1.91414e-07
4.13599e-09
3.51299e-08
-2.33529e-08
3.35404e-09
3.59609e-09
1.07348e-09
1.83321e-09
-2.13193e-08
2.04868e-08
-1.69745e-07
2.6505e-07
-1.41277e-06
2.69486e-06
-1.0585e-05
2.20438e-05
-6.77226e-05
0.000144067
-0.000361584
0.000743898
-0.00155684
0.00294247
-0.00500379
0.00800379
0.000733202
0.0078768
-0.00204784
0.00162993
0.0113678
-0.00724628
0.000865589
0.00440817
-0.00213095
0.000230032
0.00114784
-0.000472761
4.50598e-05
0.000227855
-8.48218e-05
6.72886e-06
3.61137e-05
-1.25784e-05
7.44764e-07
4.64931e-06
-1.57551e-06
5.97516e-08
4.96e-07
-1.75154e-07
7.67034e-09
4.34016e-08
-1.85698e-08
2.79486e-09
4.41388e-09
2.60981e-09
-4.53965e-10
1.48847e-08
-3.67696e-09
-2.23488e-09
7.27467e-09
-1.3629e-08
2.20035e-08
-1.20871e-07
1.48149e-07
-2.03747e-07
-2.02776e-08
-6.56024e-08
4.24436e-08
-2.21427e-08
-1.88234e-09
1.25517e-08
-6.54178e-09
-1.01979e-08
-2.56792e-09
-5.83023e-10
-5.75056e-10
-6.85648e-10
-6.16618e-09
-5.90364e-09
1.65236e-08
-2.10109e-08
5.49187e-08
-1.96474e-07
-4.78231e-09
5.35134e-07
-1.74903e-06
4.60743e-06
-1.35315e-05
-1.32938e-07
3.3817e-05
-8.76982e-05
0.00020542
-0.000464009
6.54296e-07
0.00100231
-0.00194694
0.00378172
-0.00620118
-3.48232e-05
5.74463e-07
7.49577e-06
2.93835e-05
-1.77845e-07
2.39641e-06
0.0010137
-0.00197014
-6.86601e-06
0.00232407
-0.0044563
0.00391254
-0.00616594
4.37989e-05
0.00762491
-0.0120785
0.00802731
-0.00729392
-0.0192098
-0.00168452
0.000919704
-0.00664706
-0.00190805
-1.78644e-06
0.00574137
0.00587383
0.000295988
-0.00448852
0.00199962
-6.16462e-05
-0.000890627
0.000447919
-3.03747e-05
-0.000157837
8.02139e-05
-7.27046e-06
-2.28599e-05
1.16093e-05
-1.41167e-06
-2.80246e-06
1.41984e-06
-2.15577e-07
-2.63475e-07
1.49721e-07
-2.90162e-08
-2.19949e-08
1.02532e-09
1.75909e-09
-2.2342e-08
-2.42291e-08
4.98678e-08
-2.75646e-07
2.64854e-07
-1.15081e-06
2.67961e-06
-9.33178e-06
1.29835e-05
-1.39685e-05
-8.00918e-07
-5.48698e-06
4.10369e-06
-1.80807e-06
-1.43357e-07
1.50546e-06
-2.10845e-07
-6.04341e-07
-8.74723e-08
-8.08957e-08
-1.47838e-07
-4.82451e-08
-2.58572e-08
-2.59657e-08
-2.303e-08
-5.89829e-09
-2.09123e-09
-1.00098e-09
2.77949e-09
5.17354e-10
-2.00727e-09
-2.6454e-10
-2.34062e-08
-2.0916e-07
-2.68552e-07
-2.61235e-08
7.69905e-07
-1.84405e-06
-1.6793e-06
-2.65018e-06
-1.23782e-06
5.26075e-06
-2.17117e-05
2.17827e-05
-6.22997e-05
0.000141775
-0.000337397
0.000522188
-0.000474619
-9.24933e-06
-0.000241494
0.000201126
-9.02412e-05
-3.37276e-06
9.18923e-05
-6.05025e-07
-1.39902e-05
-3.33406e-06
-1.64349e-06
-1.15667e-05
-5.73088e-06
-3.56912e-06
-1.47098e-06
-6.79123e-07
-4.27051e-07
5.58659e-07
-1.8072e-07
-4.51147e-07
3.17639e-07
-2.88533e-07
-2.8378e-08
7.86089e-09
1.04681e-08
1.64521e-08
-7.79477e-09
-8.83125e-09
3.24513e-08
1.64066e-08
-1.84813e-07
-1.31257e-07
3.57356e-07
3.03452e-07
-1.55972e-06
2.86988e-08
-1.55041e-06
-1.03592e-06
3.23142e-06
2.86595e-06
-1.14498e-05
5.32384e-07
-1.16796e-05
-6.62593e-06
2.48271e-05
2.26474e-05
-7.21846e-05
5.52642e-06
-7.5223e-05
-3.25387e-05
0.0001566
0.000145606
-0.00038028
3.97578e-05
-0.000403007
-0.000106287
0.000784045
0.000742615
-0.00162009
0.00020697
-0.0017372
-7.64528e-05
0.00298674
0.00290602
-0.00530105
0.000762578
-0.00567868
0.0015587
0.00811298
0.00810691
0.000339064
0.0014081
3.8937e-05
0.0419163
-0.0245079
-0.02567
0.0322319
0.00857554
0.00245448
-0.0171976
-0.00498149
-0.00313023
0.00450822
-0.00499613
-4.39022e-05
0.000695466
-0.00204594
-0.00178216
-0.000346581
0.000349734
6.99652e-05
-5.24755e-05
-6.31151e-05
-1.13329e-05
9.40328e-06
-2.09863e-06
-1.00546e-06
-2.42223e-07
-4.35412e-08
-7.29194e-09
-2.89015e-09
-1.21852e-09
2.64807e-09
-4.0554e-09
-3.46664e-09
-1.47966e-09
-4.89297e-09
4.0105e-09
-9.03719e-10
-5.98047e-10
-4.02307e-10
-9.9792e-10
-1.08569e-09
-1.09188e-10
-1.68135e-09
-1.66451e-10
-1.24727e-09
-1.24627e-09
-2.03832e-09
8.22401e-11
-5.19166e-09
5.20809e-09
6.5104e-11
6.68255e-11
2.45692e-09
1.73023e-09
5.11112e-09
2.16803e-09
-2.20697e-09
-1.71515e-09
-5.18943e-09
-4.9774e-11
2.4692e-11
-1.12977e-08
-2.30299e-08
-2.07658e-08
-1.30954e-08
-1.67535e-07
-1.18851e-06
-6.79843e-06
-2.9728e-05
-8.96151e-05
-4.06581e-05
6.00032e-05
-0.000397402
-0.000190431
-0.000106618
0.000265738
-0.000688745
0.000727373
-0.00148766
0.00285509
-0.000254807
-0.00300531
-0.000501158
0.00134262
-0.000106181
-0.000344106
3.465e-05
7.24893e-06
7.95535e-05
0.000184931
-0.000145275
-0.0022214
0.00846051
-0.00428895
-0.0103126
-0.00208427
-0.00401777
-0.0356147
-0.0104861
0.00147809
-0.0162463
0.0115585
0.000821746
0.000593858
0.0137195
0.0115238
0.00132526
-0.00116001
0.0147303
0.0133109
0.00131816
-0.00148228
0.013522
0.0150335
0.00125835
-0.00333766
0.0114843
0.0150618
-0.00554569
0.0105193
-0.0086984
0.00969407
-0.0369145
-0.0196654
0.00261268
-0.0090113
0.0140282
-0.000806154
-0.0219606
0.0152156
-9.77918e-05
-0.0173797
-0.0175572
-0.0247908
0.00514169
-0.0118075
-0.0086718
0.0105606
-0.0127041
-0.00289973
0.00599464
-0.00357642
-0.000716124
0.00186311
-0.00080479
-0.000171986
0.000426808
-0.000150135
-3.55273e-05
7.73565e-05
-2.30524e-05
-5.76927e-06
1.14294e-05
-2.89472e-06
-7.16121e-07
1.40982e-06
-3.00551e-07
-6.2727e-08
1.53785e-07
-2.50825e-08
3.93641e-10
1.5715e-08
-4.34328e-10
2.73898e-09
4.61044e-09
-1.91928e-08
4.47837e-08
-1.80716e-07
8.16259e-09
2.13862e-08
-2.15324e-08
2.92718e-09
1.89789e-09
1.18132e-09
3.69515e-09
2.86973e-09
3.47469e-09
9.40519e-09
8.71915e-09
-3.05978e-08
-2.93777e-07
-2.30789e-06
-2.37983e-06
-1.69773e-05
-0.000102718
-7.39584e-05
-3.72809e-05
-2.33835e-05
4.23088e-05
-0.000132919
-3.23349e-05
-7.03764e-06
-1.09113e-05
-2.47063e-06
-4.00327e-05
3.17856e-05
-9.70065e-07
1.26633e-05
-3.57414e-05
-8.91043e-07
8.54988e-05
-0.000211676
-6.66804e-07
0.000467203
-0.0010124
9.15922e-06
0.00199834
-0.00378231
3.6444e-05
0.00635008
5.60134e-05
0.000226661
5.78542e-05
-2.86149e-05
-6.43663e-05
-6.61262e-06
-2.3046e-07
-3.04333e-07
-1.2723e-07
-2.86116e-08
-4.52796e-09
-5.97324e-10
-1.67693e-10
-4.93089e-11
-4.09928e-09
1.19576e-09
1.75048e-09
3.48962e-09
1.51494e-08
5.39671e-08
2.18157e-08
-1.48217e-06
-1.27439e-05
-6.0735e-05
-0.00013882
0.000510738
-0.000218181
-0.00053438
-0.000773188
0.0139126
-0.0150106
0.0154685
-1.61273e-05
-0.00227538
0.00183642
0.00527933
-2.26801e-05
-0.00484373
0.0044355
0.00449855
-3.1498e-05
-0.00513254
0.0047169
0.00407528
-2.17894e-05
-0.00657771
0.00621646
0.00591158
-0.000153631
0.0103185
-0.0108025
0.0107339
-0.0111315
-0.000961093
-0.00450738
0.00652282
-0.000577573
-0.00620471
-0.000120863
1.97713e-05
0.020579
-4.09124e-05
-0.0206957
0.0153303
-0.000560083
-0.0158298
0.0160797
-0.000239369
-0.0165437
0.0209765
-0.000127924
-0.0207768
0.0141474
-0.0140497
0.0139414
-0.0143602
9.35012e-05
-0.0206953
0.0203564
-1.84712e-05
-0.0160823
-0.000770664
0.0159642
-0.0140204
-0.000130581
0.0249796
0.00927788
0.0207643
0.00786078
-0.00587968
0.00773044
0.00159549
-0.00335239
0.00256092
0.000433406
-0.00102383
0.000649745
0.000118851
-0.000232176
0.000136219
2.31063e-05
-3.88774e-05
2.10182e-05
3.84619e-06
-5.41162e-06
2.84727e-06
4.20367e-07
-5.68923e-07
2.85925e-07
3.46221e-08
-5.51415e-08
2.51059e-08
-1.71884e-09
-7.84301e-09
-5.93812e-10
-2.92005e-09
4.12503e-09
1.06144e-09
6.42434e-10
1.36842e-09
1.65796e-09
-1.31361e-09
-3.20534e-10
1.36597e-09
-8.29365e-10
7.73535e-10
1.21104e-09
-9.60618e-10
1.22769e-09
9.7554e-10
-7.80159e-10
-1.38248e-09
-2.96738e-09
-3.08013e-09
2.63345e-08
1.34976e-08
-2.39384e-08
-3.34166e-09
1.81922e-07
1.95603e-07
1.32965e-07
-2.50669e-07
-5.66032e-08
1.37154e-06
1.62461e-06
4.04074e-07
-4.65701e-06
1.35056e-06
1.27161e-05
1.76134e-06
-3.55096e-05
7.54736e-06
8.33169e-05
4.65511e-06
-0.000219481
3.07491e-05
0.000444946
1.30991e-06
-0.00107222
0.000103949
0.0018851
-5.75167e-05
-0.0040656
0.000214107
0.00613053
-0.000314694
-0.0117559
-3.4385e-05
0.00086285
-0.00692208
0.0113701
5.38687e-05
0.00458077
0.000369957
-0.00245515
0.00409823
-8.47456e-06
0.00137986
0.000132162
-0.000652479
0.00111288
2.34967e-06
0.000327759
3.5592e-05
-0.000132127
0.000236022
2.61951e-06
6.16616e-05
7.67519e-06
-2.10161e-05
4.00234e-05
9.28097e-07
9.39728e-06
1.29397e-06
-2.65669e-06
5.57555e-06
2.20808e-07
1.17331e-06
1.86627e-07
-2.71483e-07
6.57237e-07
4.00002e-08
1.25845e-07
2.44104e-08
-2.32612e-08
6.77537e-08
6.46149e-09
1.41188e-08
2.34665e-09
3.61018e-09
-4.57397e-09
-2.53855e-09
6.52542e-10
-1.56473e-08
-3.68541e-10
9.13994e-09
-1.70307e-08
-1.05952e-08
-9.26767e-09
-2.66514e-09
-3.2334e-09
2.36544e-08
2.42653e-08
1.3461e-08
-1.94312e-08
-7.56624e-09
1.8289e-07
7.16177e-08
-5.04875e-07
2.09543e-07
-3.03411e-07
-3.13686e-08
-1.53218e-08
-3.67239e-08
2.09559e-08
1.99578e-09
5.76606e-09
-9.63954e-10
4.18935e-09
6.63976e-09
2.09588e-10
1.24288e-09
1.07483e-09
-3.26486e-11
-2.05679e-11
-6.27697e-11
-1.59084e-10
-4.57199e-10
-1.70144e-09
-3.84323e-08
-3.77639e-08
4.45006e-07
-6.39656e-07
-4.08232e-08
-1.39956e-07
-2.41564e-08
-9.83775e-09
-6.39553e-08
-7.95605e-09
1.65598e-07
-5.99771e-07
-5.31009e-08
1.56069e-06
-5.01001e-06
-2.71432e-07
-3.12156e-07
-2.28892e-07
-2.2146e-07
-1.00955e-06
-2.69484e-06
-2.43431e-06
3.86407e-07
1.14341e-08
-7.02431e-09
-3.15001e-08
2.29355e-07
3.65779e-08
2.12335e-08
1.96064e-07
-4.58769e-07
4.811e-07
-1.20036e-06
4.07757e-06
-1.00676e-05
1.44739e-06
-4.75977e-07
4.96582e-07
1.12373e-06
2.45051e-07
-3.53904e-08
7.0465e-08
1.21859e-07
3.65534e-08
3.65603e-08
8.46113e-08
3.98924e-08
-3.43205e-07
1.77097e-06
1.00392e-06
-2.31644e-06
-4.04228e-07
8.85355e-06
1.28516e-05
6.8101e-06
-2.01003e-05
-4.77453e-06
6.28886e-05
7.74911e-05
3.40459e-05
-0.000127976
-3.62317e-05
0.000320755
0.000390258
0.000130601
-0.000664696
-0.00018677
0.00127001
-0.00259621
-0.000633192
0.00384485
-0.00775022
-0.00123135
-0.000423861
-3.43299e-05
1.50927e-05
1.61258e-05
6.59008e-06
1.7796e-06
3.5814e-07
5.69284e-08
9.76055e-09
1.80796e-09
6.63055e-09
9.10484e-09
9.27829e-09
4.4678e-09
2.34399e-09
2.34938e-08
2.22343e-08
2.38541e-09
5.79643e-09
6.74713e-09
2.77191e-10
1.11061e-09
6.88084e-10
6.23248e-10
6.78562e-10
5.99447e-09
4.06238e-09
-4.3865e-08
2.50468e-08
2.49579e-08
9.5899e-09
-2.78404e-11
-2.14759e-11
-2.24641e-09
2.15819e-09
1.72056e-09
2.51284e-09
6.663e-09
-6.23615e-10
2.6211e-08
1.78395e-07
1.19164e-07
1.39132e-08
3.21139e-09
-2.40145e-08
1.4016e-08
-2.08589e-08
-1.59907e-09
1.39869e-07
2.08699e-07
1.34321e-07
-2.77709e-07
-1.24335e-08
1.72548e-06
1.05043e-06
-2.5248e-06
-4.84588e-07
1.04682e-05
1.21397e-05
6.62756e-06
-2.03908e-05
-6.14836e-06
6.2267e-05
-0.000131398
-3.9683e-05
0.000315883
0.000110029
3.13314e-05
6.86722e-06
1.19035e-06
1.6821e-07
2.54322e-08
1.14583e-08
2.14497e-09
1.21141e-08
4.48275e-12
-9.89784e-09
-2.27368e-08
-2.51786e-08
-1.18059e-08
-6.32702e-08
-1.82712e-07
-1.31295e-07
-1.2916e-06
-1.03288e-06
-7.37115e-06
-6.61788e-06
-1.60319e-05
-9.55855e-05
-0.000473263
-0.000520278
-0.00212582
-0.00184175
-0.000984636
-0.006481
-0.0211965
0.000266691
-0.0353548
-0.0271002
-0.0222883
-0.0148276
-0.0126514
0.00455508
-0.0107415
0.000274441
0.00334211
0.000868348
0.000460221
0.0141579
-0.0154798
0.0159255
0.00024976
-0.00193135
0.00299095
0.0061934
0.000210585
-0.00434099
0.00571659
0.00567175
0.000177053
-0.00466283
0.00588617
0.00534049
0.000149724
-0.00631979
0.00690613
-0.000217151
0.000362759
-0.000101482
0.00114092
-0.00483596
-0.00684159
0.000770417
0.00422196
1.58685e-05
-0.000127761
0.00253346
5.59329e-05
-0.00411706
0.00709476
9.94706e-05
-0.011168
0.00673827
-0.00480969
0.00381281
-0.00180856
-0.00833783
-8.49953e-05
-0.0123045
0.0162224
-0.0140281
0.00972286
2.47289e-05
-0.00964207
2.96533e-05
0.00955834
-2.7224e-05
-0.00960577
-8.86716e-06
0.00964475
-5.19245e-05
-0.00970452
0.0143311
-0.0163354
0.00155874
-0.0167005
0.0231237
0.00137902
0.000840164
-0.00989676
0.00993972
-0.0106119
4.35481e-05
-0.00629553
0.00571108
0.00034153
-0.0073505
0.00526313
-0.0068357
0.00092049
0.014994
-0.00745012
0.00395224
0.000550827
-0.00739426
0.00573922
-0.000178918
-9.0635e-05
-1.26509e-05
9.6479e-05
6.9714e-06
-1.02314e-05
-5.649e-06
-1.67806e-06
-3.50111e-07
-5.6403e-08
-9.73552e-09
-1.84882e-09
-2.46823e-09
-1.50706e-11
-4.95145e-10
-1.05772e-09
-1.04894e-09
8.00179e-10
-1.33539e-09
-4.96897e-09
-1.39687e-09
-2.61712e-09
-4.23111e-09
-1.75019e-09
-1.35595e-09
-6.72393e-10
-1.68495e-09
-2.66879e-09
2.85008e-10
1.54488e-09
-5.66529e-10
-7.98087e-11
-6.15815e-10
-5.98406e-10
-1.34193e-09
-1.6599e-09
-1.30321e-09
-7.55336e-09
7.55973e-09
1.58278e-09
1.30063e-09
6.06617e-10
-9.44263e-10
-3.97703e-11
9.06895e-10
-1.86352e-11
-5.31079e-11
-6.03671e-09
-1.02257e-08
-7.65735e-09
-9.83328e-09
1.71217e-08
1.07458e-08
8.05044e-09
-2.99819e-08
-2.99505e-07
-2.41366e-06
-1.68362e-05
-9.93277e-05
-0.000483914
-0.0018984
-0.00187381
-0.00596295
-0.00646764
-0.0167582
-0.026125
-0.0241509
-0.0242001
0.00950184
-0.0111279
-0.00831507
-0.00897733
-0.0244047
-0.0264926
-0.0245646
-0.0245583
-0.0238753
-0.0244618
-0.0281697
0.00966423
0.000840382
-0.00151328
0.0262629
-0.00567586
-0.0209949
-0.0180941
-0.00490857
-0.00588043
-0.0161211
-0.0163546
0.000179722
-0.000848398
0.00118154
0.000433363
0.000103869
1.88201e-05
2.72641e-06
1.76039e-06
1.83542e-07
1.82461e-07
1.63461e-08
3.26137e-08
-1.65628e-07
-1.53043e-06
-1.14779e-05
-7.0591e-05
-0.000354085
-0.0014591
0.00119788
0.000971376
0.000962492
0.000324397
7.6113e-05
1.31685e-05
1.30152e-05
1.74394e-06
2.64758e-06
3.12609e-07
2.71481e-07
5.02721e-07
-1.6017e-06
4.62519e-06
-1.25801e-05
7.30853e-07
2.69857e-06
-1.4232e-06
6.13348e-08
-1.61262e-07
-1.66579e-07
-1.29171e-07
-1.71821e-07
-2.07039e-08
-1.97807e-09
-6.84873e-10
-1.28674e-08
-2.51126e-08
-2.25373e-08
9.87754e-11
-1.00043e-08
3.19704e-09
-3.72153e-10
-3.22698e-11
-8.58556e-11
-5.03928e-10
-2.48081e-09
-1.7255e-09
4.9728e-10
3.65527e-10
5.85035e-10
1.78853e-10
4.76567e-10
1.03525e-09
1.07102e-09
1.33479e-09
5.71036e-10
5.95485e-10
1.12483e-11
3.68099e-10
7.29702e-11
9.98334e-09
4.22409e-09
2.61995e-09
-2.54105e-11
1.32836e-09
4.95548e-09
2.27055e-08
9.47314e-09
-2.03457e-11
-1.66565e-11
-1.17469e-08
-9.55253e-09
-3.76721e-08
-8.783e-08
-6.9513e-08
-6.097e-07
-3.93491e-07
-1.1823e-06
-1.01801e-06
-6.78578e-06
-6.5226e-06
-1.05799e-05
2.16979e-05
3.54297e-05
-8.34788e-05
0.000221055
-0.000456763
4.25954e-05
0.000139849
-6.71191e-05
6.45729e-06
-3.40816e-06
-3.4053e-06
-1.64719e-06
-1.45782e-05
-3.14658e-06
-2.99602e-05
-3.2268e-05
-3.22138e-05
-3.26229e-05
-9.85556e-05
-0.00010975
-0.000164064
-0.000133677
-6.07228e-05
0.000780911
7.61726e-05
1.4444e-05
-5.66106e-06
-3.16986e-06
-8.55594e-07
-1.60947e-07
-1.81576e-07
-7.35488e-08
-3.91517e-07
-9.686e-07
-3.76397e-07
-1.86674e-06
-3.61642e-06
-1.37399e-06
8.12513e-08
5.93253e-09
-6.30256e-08
6.40892e-08
7.85853e-08
5.17658e-10
7.86281e-09
7.71492e-08
5.12027e-07
-6.21977e-06
-6.57459e-06
-2.78836e-06
-1.08456e-05
1.58744e-05
1.20605e-06
1.02767e-05
0.000146956
0.000119449
-1.73603e-05
-0.0024181
-0.00218869
-0.00019109
0.000389671
0.00049024
9.68802e-05
-0.00529985
-0.000152156
-5.83144e-05
6.30595e-05
-0.000470335
-1.12038e-05
0.0149328
-0.000149022
-0.0159096
-7.80393e-05
-0.000404079
-0.0148543
-0.000570998
-0.000592796
-0.0110049
-0.00674374
-0.0103006
-0.0237556
0.00294161
0.00597806
0.000388377
-0.000358726
-0.000324836
-0.00055074
-0.000107059
-0.0134888
0.0151878
-7.55196e-05
-0.0036002
0.0014747
0.00483282
-5.11537e-05
-0.00631294
0.00385655
0.0039042
-5.5564e-05
-0.00647343
0.00415471
0.00348402
-9.14322e-05
-0.00597151
0.00146242
-0.0104777
0.00582785
0.0088182
-0.00931027
0.00241249
0.000726229
-0.000448238
-2.75551e-05
1.82736e-05
1.86691e-05
7.57491e-06
2.03833e-06
4.08703e-07
6.48031e-08
1.89587e-07
1.79499e-07
1.78453e-07
1.74054e-06
-4.15495e-06
1.09622e-06
1.34197e-05
-3.14157e-05
2.93761e-05
-6.97206e-05
0.000175336
-0.000388941
2.67459e-05
-4.58531e-05
1.44249e-05
5.54747e-05
7.07316e-06
-5.49562e-06
2.98095e-06
8.69161e-06
1.72552e-06
2.35922e-06
5.19425e-06
-6.80842e-07
-2.00966e-05
8.99868e-05
3.16598e-05
-0.000121562
-3.54063e-05
0.000301175
0.000407713
0.000134813
-0.000642131
-0.000179106
0.0015731
0.000399516
-0.00252923
-0.000654338
0.00383773
0.00495092
0.000719371
-0.00911899
-0.0013199
-0.00758559
-0.00898403
0.000782379
0.00480322
0.00395817
-0.00743505
-0.0012807
-0.0004531
0.000595987
0.000307015
0.000118289
3.37922e-05
7.38987e-06
1.27292e-06
8.35322e-07
4.68177e-06
1.13757e-06
4.37119e-07
4.23897e-06
1.06474e-06
8.65619e-05
-0.000193948
2.34072e-05
0.000456135
-0.000956867
0.000849256
-0.00170133
0.00326898
-0.00555859
-2.9752e-05
-0.00116893
0.000137457
0.00124449
6.69821e-05
-0.00028444
5.36984e-05
0.000289877
2.61926e-05
5.68393e-05
0.000145218
-3.3928e-05
-0.00041522
0.00202118
0.00031253
-0.00238294
-0.000665892
0.00408308
0.00495751
0.000738386
-0.00947733
-0.00131618
-0.00684302
-0.0125994
0.00037318
0.00635454
-0.000938274
0.00446403
-0.000556527
0.00245194
0.00348504
0.0015087
0.00093883
0.0044928
-0.0021575
0.00012373
0.00140349
0.000461676
0.000127294
2.96675e-05
5.61681e-06
8.63304e-07
1.09149e-07
1.21889e-08
6.06509e-09
-5.46218e-10
-1.35522e-09
-5.04499e-10
2.55187e-09
-3.32771e-09
2.27507e-08
-1.24226e-09
-8.88816e-10
-2.22421e-09
-1.89626e-09
1.68591e-08
2.55378e-08
1.36363e-08
-2.70673e-08
-2.0919e-09
2.10359e-07
1.34611e-07
-2.64667e-07
-2.25077e-08
1.45766e-06
1.63643e-06
1.03902e-06
-2.52195e-06
-6.98745e-07
1.00526e-05
-2.54948e-06
-1.65203e-06
-3.38599e-06
-1.72442e-07
-3.74928e-07
2.9571e-07
2.88318e-07
2.98015e-08
-7.91401e-09
-7.46415e-09
-2.04934e-09
-4.47672e-09
-9.48655e-09
5.06561e-09
7.85702e-10
4.71749e-09
1.00247e-08
2.00855e-07
1.28652e-07
-2.41419e-07
-9.82876e-09
1.16841e-06
1.73895e-06
1.05806e-06
-2.5691e-06
-4.16025e-07
1.25698e-05
6.72089e-06
-2.00124e-05
-5.1215e-06
6.39124e-05
7.60479e-05
3.34124e-05
-0.000161044
-6.75391e-05
-1.21286e-05
-2.58328e-05
1.49614e-05
1.50146e-05
2.24275e-06
-1.44334e-07
-2.91879e-07
-1.02437e-08
-2.30478e-08
2.82419e-08
-3.0034e-08
-3.30753e-08
1.40582e-07
2.96172e-07
-2.33644e-07
-3.25694e-07
1.363e-06
3.36735e-07
7.60719e-07
7.17321e-08
1.37991e-05
6.37678e-06
-1.86919e-05
-4.79592e-06
5.69278e-05
8.00557e-05
3.45699e-05
-0.000127767
-3.49395e-05
0.00039188
0.000133547
-0.00064647
-0.000182489
0.00127602
0.00159047
0.000386648
-0.0030869
0.000288544
2.12554e-06
9.71863e-06
5.30137e-06
3.28334e-07
4.69755e-08
3.9313e-09
1.54248e-10
-7.35837e-08
-1.81419e-07
-9.72638e-07
-8.74179e-07
-2.2934e-07
-1.06055e-06
-3.26501e-06
-7.42801e-06
-7.02881e-06
-3.67448e-06
-1.43479e-06
-3.81816e-07
-3.21816e-07
-6.20976e-08
-4.96238e-08
5.50519e-07
-5.89613e-10
-5.51573e-07
1.76429e-06
-3.56805e-09
-4.68614e-06
4.68158e-06
-1.76571e-06
1.59366e-06
-2.12535e-07
-5.05662e-06
4.14823e-06
-1.82643e-06
4.58652e-07
-3.57182e-08
-6.094e-07
1.71086e-07
-1.99159e-07
1.98859e-07
-1.71684e-07
3.52196e-08
-4.58337e-07
6.09614e-07
4.91337e-08
-1.59656e-06
2.10833e-07
-4.14227e-06
5.06104e-06
2.70398e-07
-1.27418e-05
9.88159e-07
-3.1315e-05
3.56905e-05
-3.37417e-05
3.37542e-05
-1.17157e-08
1.35726e-05
-1.35722e-05
-2.66309e-07
1.27426e-05
-9.73499e-07
-3.56484e-05
3.14286e-05
-1.39934e-05
-8.18222e-07
-5.54711e-06
2.68073e-06
-2.12117e-07
1.53055e-06
-1.42336e-07
-6.54297e-07
2.74326e-07
-3.89679e-08
1.5386e-07
-2.07017e-07
4.44172e-08
-5.64159e-09
-6.51036e-08
-7.25587e-09
5.70208e-08
-4.14365e-11
-5.72186e-08
7.26324e-09
6.50669e-08
5.49116e-09
-4.44227e-08
2.07578e-07
-1.53529e-07
2.01877e-08
2.42963e-08
6.95297e-09
2.69938e-09
1.09707e-09
-2.84411e-09
4.98559e-09
-4.26486e-09
4.21756e-09
-9.78077e-11
-1.24335e-11
-1.42946e-09
-5.02115e-09
2.80636e-09
-1.12806e-09
-7.52349e-10
1.93295e-11
-1.55675e-09
-6.27505e-10
-8.62282e-10
1.74e-08
-2.16367e-08
2.15419e-08
-1.74794e-08
2.2632e-08
-1.31616e-08
1.95989e-09
1.75928e-09
-2.81438e-13
6.7162e-10
1.52559e-09
5.89441e-10
6.00693e-09
3.77429e-08
-1.91198e-10
4.389e-10
1.76992e-08
-1.18894e-06
-1.01685e-06
-8.71178e-05
-1.62646e-08
-0.000199914
0.000200226
-0.000207405
0.000193781
-2.91554e-06
8.45473e-05
-8.94025e-05
-3.62804e-06
-3.98709e-05
2.12402e-05
-8.46846e-07
1.29289e-05
-9.3899e-06
-1.27453e-06
-2.77563e-06
5.32872e-06
-3.66302e-06
-2.13444e-05
3.99818e-05
-2.28046e-05
-0.000132666
0.000240924
-0.000106871
-0.000653502
0.00113341
-0.000403792
-0.00261059
-0.0008697
-0.000245528
-0.000240232
-5.54594e-05
-5.67854e-05
-1.17482e-05
-1.11099e-05
-2.02803e-06
-1.75175e-06
-2.77221e-07
-4.43142e-07
5.75531e-07
-1.17466e-06
-1.84061e-07
-2.92635e-07
5.50024e-08
-3.58021e-08
-3.13998e-08
-2.30581e-07
-2.60257e-08
-2.56699e-08
-2.4205e-08
2.35669e-08
-6.34223e-09
-6.75602e-08
-1.98625e-08
-2.37082e-08
-5.41146e-09
-2.19876e-09
-9.81384e-10
-4.11684e-09
2.9102e-09
4.19865e-10
7.85214e-09
1.47497e-09
-4.27434e-10
-2.2538e-09
-2.35343e-09
-1.41958e-08
1.31823e-08
-2.26424e-08
-1.92058e-09
-3.4264e-09
-2.8082e-09
-6.99347e-09
-4.14771e-08
-2.01715e-08
-2.39235e-08
5.95402e-07
7.00187e-06
-1.65791e-06
-0.00023569
0.000134616
-6.19836e-05
8.96228e-05
-2.66919e-06
-7.0978e-07
-1.39322e-07
-5.74684e-08
-2.32611e-07
-1.00666e-06
-2.71623e-06
-5.20185e-06
-1.12062e-05
-0.000464265
-3.00348e-06
-0.000969081
0.000946501
-0.00111657
0.000669219
5.45502e-06
0.000498108
-0.000332103
-3.17689e-05
-3.08141e-05
9.8829e-05
7.48415e-05
0.000318654
0.000407929
0.00070895
0.00109789
-0.00201348
0.000350184
-6.5905e-05
-4.34238e-05
2.33394e-05
-9.34692e-05
-0.000110817
-0.000354365
-0.000162618
-0.000152477
-0.00150684
0.00021119
5.44164e-06
-3.86556e-06
1.56595e-05
9.79119e-05
0.000143252
1.38192e-05
-2.11619e-07
-3.17144e-06
-2.49061e-06
1.3426e-06
2.10393e-06
2.90475e-06
6.32767e-07
-1.02691e-06
1.60743e-06
3.61157e-07
4.37579e-07
1.03645e-06
1.00098e-06
4.20242e-06
5.61428e-06
1.45121e-06
3.37463e-07
2.22776e-07
-3.03434e-07
-6.90836e-07
-6.13077e-08
4.39441e-08
7.79838e-09
1.30401e-08
1.45912e-09
6.79926e-08
-9.68883e-07
1.00176e-06
3.82326e-06
-2.00248e-07
-3.13881e-06
1.58962e-05
1.01821e-05
2.27784e-05
5.66375e-06
0.00191145
-0.00366879
0.000179793
0.00610544
0.000143802
1.25393e-05
6.87554e-05
0.000994731
-0.00169087
0.0110396
-0.010085
0.0210291
0.002779
0.0107906
-0.0109245
0.0101851
-0.00882509
0.00724695
0.00825257
-0.0093948
0.00188287
-0.0106142
0.00771636
0.00792081
0.0141271
-0.00100929
-0.000613898
-0.00187003
-0.000278945
-0.00567005
-0.000229194
-4.07196e-05
-7.2031e-07
6.66058e-06
5.90297e-06
-1.25342e-06
5.25902e-06
2.6074e-06
1.09677e-05
-3.1815e-08
1.70304e-05
-9.95995e-06
0.000169861
6.75606e-05
2.04188e-05
-0.000192312
0.00047873
0.000118873
-0.000618054
-0.000182434
0.00127294
0.00164015
0.000394025
-0.00249438
-0.000644256
-0.00305259
0.000308539
0.000118585
1.03777e-05
1.19187e-05
1.54631e-05
7.75466e-05
1.0473e-05
9.46059e-06
5.76669e-06
1.89118e-06
4.162e-06
7.49547e-06
1.30363e-06
1.84809e-07
-3.42382e-07
-1.58558e-07
1.39584e-06
-1.33635e-08
1.7215e-07
-3.15233e-08
-8.95764e-09
2.22426e-08
-3.09923e-09
-1.68701e-09
-8.53035e-09
3.08576e-08
-1.58054e-06
-1.56396e-06
-2.95008e-06
2.47938e-06
-1.96495e-06
-2.93489e-06
9.79569e-06
1.72599e-05
-1.36854e-05
-2.89972e-05
5.58408e-05
1.26661e-05
2.88967e-05
-7.48772e-06
-0.000106326
-7.33167e-05
0.000253257
0.000426492
9.70861e-05
-1.23463e-05
-2.42021e-05
-1.1873e-05
-2.48576e-05
8.24769e-05
-7.24752e-05
-0.00015837
-6.71811e-05
0.00032024
0.000349853
-0.000318372
-0.000812905
-0.000278709
-0.00100247
0.000964012
0.000265991
0.000798928
-6.37038e-05
-0.00406584
-0.000444407
0.00140305
0.00320586
0.00508823
0.0102901
0.0241327
0.0129261
0.0190502
-0.00249747
-0.00102914
-0.00320611
0.00105944
0.0021192
0.00429119
0.0125279
0.0184185
-0.00230298
-0.000889599
-0.000284039
0.00129365
-0.00078717
0.000337381
8.11594e-05
0.000984947
0.00190994
0.0039482
0.0114357
0.0186415
-0.00234296
-0.000886946
-0.000282889
-0.000799184
-0.000361616
-9.03364e-05
-1.7281e-05
1.09041e-05
1.47673e-06
1.5877e-07
6.10036e-08
7.03568e-07
6.36052e-05
0.000283845
0.000923351
-0.00106676
-0.00230883
0.00396754
0.0104369
0.020861
-0.00307678
0.00583974
0.00247235
0.00113384
-9.89169e-05
-9.05389e-05
-1.70597e-05
3.1812e-06
3.02561e-06
1.03651e-06
2.34672e-07
4.14895e-08
-4.63931e-10
-8.32965e-11
-9.22544e-09
9.27302e-09
1.35715e-09
8.55994e-10
3.47771e-09
2.20211e-09
5.64375e-09
2.2178e-08
1.43768e-07
1.45233e-07
-1.52797e-06
1.83161e-06
2.32769e-07
6.28556e-08
7.69298e-08
1.19051e-08
1.83652e-07
1.62803e-07
8.89847e-08
1.03773e-08
2.64653e-09
-4.47458e-08
2.79948e-08
6.1808e-07
8.90638e-07
3.41053e-07
4.23837e-07
9.97001e-07
3.973e-06
1.79958e-06
1.40442e-06
1.1171e-06
3.85541e-06
1.59646e-07
6.24336e-07
4.79992e-07
7.38989e-07
0.000949587
-2.57111e-07
-0.000947941
0.00188933
-4.50171e-06
-0.00349655
0.00349538
-0.00189001
0.00191302
1.26057e-05
-0.0035365
0.00355331
-0.00191234
-1.8418e-05
0.00216601
-0.00142893
-9.4048e-05
-8.31741e-05
1.1893e-05
4.48497e-05
0.000177131
0.000215097
-0.00114668
-0.00262938
-0.00417139
-0.000303643
-0.00112916
-0.000597174
-8.47127e-05
0.000202666
0.000117783
2.08764e-05
-1.26367e-06
3.73792e-06
-2.0773e-06
0.000453351
-0.000455253
0.000455609
-0.000451524
5.14047e-06
-0.0009347
0.000970204
3.68248e-06
-0.00190726
-8.2982e-06
-0.00350435
0.00353795
-6.76121e-06
-0.00616151
0.00610843
-0.00691819
4.54509e-05
-5.8379e-05
-1.79796e-05
1.59213e-06
3.88221e-06
2.58674e-05
0.00011185
-8.05385e-05
0.00122754
-0.00239685
0.0421049
-0.00119336
-0.00011664
-0.000726534
-0.0100798
0.00280202
0.00622383
0.000468163
-0.000114586
-0.00445758
-0.000168134
4.72823e-05
6.96089e-05
7.01333e-06
8.81505e-06
0.000517072
0.000282389
-0.0151499
0.0144994
-0.00104819
-0.000620812
-0.000486035
0.00261211
-0.00108849
0.00207467