/*--------------------------------*- C++ -*----------------------------------*\
| =========                 |                                                 |
| \\      /  F ield         | OpenFOAM: The Open Source CFD Toolbox           |
|  \\    /   O peration     | Version:  2306                                  |
|   \\  /    A nd           | Website:  www.openfoam.com                      |
|    \\/     M anipulation  |                                                 |
\*---------------------------------------------------------------------------*/
FoamFile
{
    version     2.0;
    format      ascii;
    arch        "LSB;label=32;scalar=64";
    class       volScalarField;
    location    "0.3";
    object      gradTx;
}
// * * * * * * * * * * * * * * * * * * * * * * * * * * * * * * * * * * * * * //

dimensions      [0 -1 0 1 0 0 0];

internalField   nonuniform List<scalar> 
5322
(
-0.0152125
0.00160056
0.00116357
-5.02695e-05
-3.76005e-05
-9.51656e-06
-1.01193e-06
1.168e-07
7.17719e-08
1.79995e-08
3.91293e-09
1.91036e-09
9.82966e-10
-2.82669e-09
2.6042e-09
2.19539e-08
-9.47934e-09
1.06527e-08
-3.96004e-09
1.23861e-07
-3.39878e-08
1.14059e-06
-3.69497e-07
8.75752e-06
-5.55029e-06
5.46379e-05
-3.88563e-05
0.000278473
-0.000253866
0.00111448
-0.000981792
0.0036347
-0.00245238
0.009585
0.00273988
0.0205184
0.0146373
-0.0059778
0.0154184
-0.00111718
-0.0149307
0.0147157
-0.000878461
-0.0156015
0.015764
-0.000381723
-0.0164588
0.0151403
-0.000132293
-0.0173794
-0.0175445
-0.0247475
-0.00901527
0.0139038
-0.000818486
-0.02184
-0.000639683
0.0207786
-0.000152276
-0.0205081
-1.05991e-05
0.0201108
-6.84466e-05
-0.0202582
3.30459e-05
0.0198097
0.000314765
-0.0202266
0.0013853
0.0167347
0.00152487
-0.0122454
0.0139112
-0.0142445
0.0136344
-0.0138841
0.0139649
-0.0139321
0.0161136
-0.0122512
0.00507164
-0.011781
-0.00872022
0.0106353
0.000598454
-0.00155033
0.00956966
-0.0282025
-0.00571597
0.0261974
-0.00124378
-2.33127e-05
-0.000105351
0.00111911
0.00918125
-0.00038942
0.00140349
0.0010976
0.00976393
-0.0246577
-0.0246205
0.0419992
0.00101832
0.00718237
0.0118719
0.00161951
0.000357868
9.35485e-05
5.59388e-06
-1.11429e-05
-6.05087e-06
-1.79689e-06
-3.75081e-07
-6.04514e-08
-1.02751e-08
-1.91026e-09
-1.00984e-08
-4.42685e-09
-2.27409e-10
-2.73027e-09
-1.80811e-09
4.75898e-11
-1.41831e-09
-6.92831e-10
-1.69723e-09
1.3351e-09
2.19658e-10
-1.45855e-09
8.24214e-10
-7.22278e-10
-1.22052e-09
9.03456e-10
-1.26044e-09
-9.50549e-10
7.64257e-10
-1.73607e-09
-6.97055e-10
6.1514e-10
-8.91021e-10
-6.20768e-10
-1.79544e-09
-2.04443e-09
-2.70561e-09
-4.7298e-09
-1.04805e-08
-3.93294e-10
-2.53013e-09
-5.89381e-09
-6.92134e-09
-9.46237e-09
3.35263e-10
-4.66745e-09
-4.41189e-09
-9.25896e-09
-6.8213e-09
6.55638e-10
-5.80705e-09
-1.59269e-09
-4.94668e-09
2.73549e-09
-2.08561e-08
-1.92296e-08
4.37057e-08
-1.81856e-07
-2.79388e-08
-2.49395e-08
-7.31663e-09
1.53926e-08
-3.63551e-09
4.35644e-09
1.8413e-09
3.70535e-09
-2.39941e-08
3.2283e-09
-2.31954e-08
2.27188e-08
3.4813e-08
-1.93464e-07
1.58548e-09
-1.79889e-07
2.56378e-07
3.58706e-07
-1.62773e-06
9.34451e-09
-1.45756e-06
2.48434e-06
3.28868e-06
-1.22279e-05
4.07315e-07
-1.06616e-05
2.00037e-05
2.56017e-05
-7.83548e-05
4.88757e-06
-6.70175e-05
0.00012993
0.000163399
-0.000417007
3.71721e-05
-0.000351815
0.000663575
0.000829363
-0.0017899
0.000198202
-0.00149118
0.00258191
0.00324111
-0.00592042
0.000740192
-0.00483536
0.00711907
0.00882299
-0.000136553
0.00936281
-0.0243493
-0.0248688
0.04192
-0.00246069
-0.00253072
-9.71252e-05
0.00122402
0.00924325
0.000246406
0.00154821
-0.000293086
0.00916943
-0.0247379
-0.0243935
0.0417019
0.000821337
0.00713305
0.00138103
0.000478212
0.000102241
9.48921e-06
-1.03624e-05
-6.14051e-06
-1.87023e-06
-3.9385e-07
-6.35182e-08
-1.0795e-08
-2.00152e-09
2.76507e-09
-7.60502e-09
7.41014e-09
-2.94547e-09
1.21335e-09
1.64089e-09
1.35991e-09
6.11929e-10
-8.8252e-10
-8.87784e-11
-1.75799e-09
-1.33024e-09
-1.48966e-09
-7.2431e-10
-8.92892e-11
-6.66239e-10
-1.43984e-09
-6.7774e-10
7.58712e-10
-9.83017e-11
-8.57328e-11
3.88987e-09
-2.09208e-08
2.06898e-08
-1.69529e-08
6.43121e-08
-1.7281e-07
6.05226e-07
-1.60485e-06
5.02734e-06
-1.27799e-05
3.56959e-05
-8.48178e-05
0.000210979
-0.000457659
0.00101103
-0.00195148
0.00379555
-0.00628844
0.0106713
-0.00768919
0.000203941
0.00769275
0.000215913
-0.0104207
0.00610794
3.26234e-05
-0.00367995
0.0019221
1.33347e-05
-0.000973297
0.000458136
4.66241e-06
-0.000201005
8.65877e-05
1.26968e-06
-3.35379e-05
1.33775e-05
2.74375e-07
-4.64207e-06
1.73403e-06
4.83295e-08
-5.47211e-07
1.95381e-07
7.25389e-09
-5.64902e-08
-2.30096e-10
5.58625e-08
-1.96094e-07
-8.15778e-09
-6.42285e-08
1.66773e-08
-9.5562e-10
-4.58236e-09
-9.96293e-10
2.7325e-09
-2.17767e-08
4.25552e-08
-1.9927e-07
4.49809e-07
-1.76342e-06
4.13989e-06
-1.35232e-05
3.17561e-05
-8.66795e-05
0.000198671
-0.00045369
0.00099219
-0.00188714
0.00382118
-0.00592634
0.0107314
-0.00741662
-0.0024236
0.00295031
0.000334667
-0.00995492
0.00561206
-7.94258e-06
-0.0033938
0.00177756
-4.31344e-05
-0.000864499
0.000401656
-1.95727e-05
-0.0001775
7.06516e-05
-5.52591e-06
-2.97604e-05
1.0015e-05
-1.17546e-06
-4.12702e-06
1.17253e-06
-1.98342e-07
-4.85195e-07
1.16288e-07
-2.80108e-08
-5.0278e-08
8.87354e-09
-2.68406e-09
-2.65391e-09
2.4162e-10
1.01295e-09
-9.64197e-09
-4.62745e-09
-2.75453e-09
3.06609e-09
-2.21121e-08
2.1462e-08
-1.96988e-07
-1.38189e-07
-2.04993e-07
-7.20667e-10
1.95623e-08
2.11228e-08
-2.50315e-08
1.63921e-09
-1.65514e-08
-1.45262e-08
-1.48252e-08
-3.19464e-09
-7.48601e-10
-1.1582e-09
-2.31062e-09
-2.306e-08
-1.41734e-08
-2.18229e-08
-2.57734e-08
2.95833e-08
-2.06602e-07
-1.38783e-07
3.25549e-07
-1.70815e-06
3.09336e-06
-1.26471e-05
-6.99586e-06
2.466e-05
-8.00943e-05
0.000159842
-0.000422125
-0.00011841
0.000818073
-0.00179041
0.00318676
-0.00580337
0.00114589
-0.000100123
-0.000174101
-0.000160573
-0.000100751
-0.000120259
0.000855096
-0.00185403
0.000214666
-0.0014843
0.00249311
0.00340803
-0.00583395
0.000850493
-0.0051288
0.00648669
0.0133736
0.000863773
0.00227449
-0.0268752
-0.0251121
0.04101
-0.00309722
8.62642e-05
0.000271912
-0.00530829
0.000704165
0.00119252
-0.00134236
7.119e-06
0.000306401
-0.000297758
-2.35989e-05
4.87742e-05
-5.66829e-05
-7.50277e-06
4.73801e-06
-8.77916e-06
-1.66469e-06
4.42719e-07
-1.11557e-06
-2.84144e-07
2.36146e-08
-1.17307e-07
-4.14254e-08
4.29886e-09
-1.79486e-09
-3.8364e-10
-3.36054e-09
-1.24281e-08
3.37191e-08
-7.04517e-08
3.0289e-07
-1.7595e-06
3.36865e-06
-1.39612e-05
-9.08106e-06
-1.29529e-05
3.01164e-07
2.26756e-06
2.85539e-06
-1.72309e-06
-8.85523e-09
-1.1728e-06
-1.06773e-06
-9.00509e-07
-1.28087e-07
-7.80224e-08
-1.12947e-07
-3.1745e-08
-2.90721e-08
-1.21856e-07
-2.74328e-07
-2.54288e-08
4.35404e-09
8.54278e-10
1.16047e-09
5.65237e-10
8.89549e-09
-3.36781e-09
2.93089e-08
2.33e-07
-1.30167e-06
-2.41814e-06
-1.78413e-05
-1.00669e-05
1.9625e-06
-7.48169e-07
-1.99877e-07
2.97547e-06
-5.32137e-06
2.91824e-05
-9.30765e-05
0.000198372
-0.000514036
-0.000330984
-0.000439115
3.7578e-05
0.000124475
0.000162021
-8.28728e-05
4.5484e-06
-6.00985e-05
-3.32634e-05
-2.01663e-05
-4.96492e-06
-3.19326e-06
-5.84272e-06
-1.74659e-06
-2.33309e-06
-9.09379e-07
-3.21226e-07
-3.35696e-07
3.51842e-07
-5.78906e-08
-5.46903e-07
-8.98491e-08
-2.06338e-08
-4.38748e-09
-2.01118e-09
-1.96977e-09
-6.09312e-09
-1.26098e-08
-1.10505e-08
-1.68908e-08
-9.81005e-09
1.70748e-07
-2.66992e-08
-6.04917e-07
5.43867e-07
-1.73419e-06
-5.12704e-08
1.6035e-06
-1.32278e-07
-5.0252e-06
4.65142e-06
-1.33265e-05
-2.44758e-07
1.29037e-05
-4.15247e-07
-3.56346e-05
3.38488e-05
-8.59751e-05
-7.56179e-07
8.63664e-05
1.24079e-07
-0.000210353
0.000203953
-0.000454049
-5.18332e-07
0.000468577
9.37952e-06
-0.00100767
0.000989956
-0.00190538
8.06223e-06
0.00199656
4.22719e-05
-0.00377928
0.00372984
-0.0060711
3.74739e-05
0.00634773
1.54539e-06
-0.0105801
0.0104333
-0.00766283
-1.84184e-05
0.00767374
-0.000622384
-0.00197742
-0.000566822
-0.00269112
-0.0205357
0.00317807
0.000295439
-0.00128696
-0.00244852
-8.87188e-05
-0.00712804
0.00210879
-0.00688607
-0.0070993
3.52617e-05
-0.00152333
-0.00229426
-0.00055404
-0.000312922
8.11635e-05
-6.10084e-05
-0.000109065
-9.47188e-05
-1.55462e-05
-2.17883e-06
-2.6916e-07
-2.72771e-08
7.75508e-09
1.26631e-09
1.94729e-09
2.14962e-09
7.0037e-09
8.5441e-09
2.98131e-09
3.01735e-09
2.93832e-09
-6.73167e-09
-3.39081e-10
-1.09838e-09
-6.69609e-10
-2.85238e-10
-5.68421e-09
-4.11221e-10
-1.79122e-11
-9.22661e-12
-3.99459e-11
-2.48317e-09
-5.32362e-09
-5.21683e-09
-2.36055e-09
2.19689e-09
2.56345e-09
1.83054e-09
5.11509e-09
2.15661e-10
1.5288e-10
1.87208e-09
5.13496e-09
-6.46136e-11
-1.35092e-10
-1.58411e-10
-1.36851e-10
-6.62183e-09
-4.86972e-09
-4.09054e-08
-2.47369e-07
-1.11056e-06
-3.13565e-06
-2.28728e-06
-5.11205e-05
-4.7748e-05
-0.000124572
-1.47495e-05
-6.00701e-05
0.000103279
-0.000173769
0.00107238
-0.00227318
0.00453574
0.000169688
-0.00131803
-0.000372748
0.000361059
4.78358e-05
0.000321063
0.000378267
-0.000479719
-0.0019485
-0.0061924
-0.017455
-0.0181619
-0.0356419
-0.0106712
-0.00858907
0.000316412
-0.00278411
0.00416162
-0.0365221
-0.0228372
-0.011685
0.0152626
0.00137992
0.000735398
-0.0144981
0.0155525
0.000258879
-0.00186668
-0.0156939
0.01534
1.41196e-05
-0.00221659
-0.015534
0.0151281
-6.00861e-05
-0.00355943
-0.0150392
0.0107901
-0.0108569
0.0101953
0.00778587
0.0210089
-0.0100159
-0.00539197
0.00280491
0.0106457
-0.0286455
-0.00115907
-0.0162693
0.0192605
0.0198967
0.0171883
0.0219856
0.00830281
0.000294597
0.00711041
0.00967624
0.013657
-0.00208131
0.000946125
0.00443256
-0.00113331
0.000100343
0.00122641
-0.000274265
2.80983e-05
0.000286561
-4.36074e-05
8.28725e-06
5.51333e-05
-5.08882e-06
1.84467e-06
8.6981e-06
-4.16161e-07
3.07237e-07
1.13488e-06
-2.75544e-08
3.94603e-08
1.24113e-07
-3.51108e-09
1.97908e-09
1.03538e-08
-1.1034e-09
-3.49569e-10
2.76635e-09
-9.27582e-09
5.13427e-08
-1.19648e-07
2.68386e-08
-4.40672e-08
2.18217e-08
2.697e-09
-2.80053e-09
9.94215e-10
4.59341e-09
-4.05644e-09
9.07879e-10
1.26338e-09
-9.28591e-11
-1.32468e-10
-3.57769e-10
4.88147e-09
-7.46456e-08
2.11658e-08
2.86904e-06
-2.98283e-05
-8.65324e-06
-1.38421e-05
1.97767e-05
-3.11128e-05
6.66725e-06
2.20696e-07
1.39996e-05
1.27418e-05
1.86894e-05
2.40833e-05
-7.1606e-06
-1.0384e-05
2.01386e-05
4.55578e-06
-6.62258e-05
0.00013049
3.63257e-05
-0.000352413
0.000665049
0.000198013
-0.00151465
0.00257614
0.000738979
-0.0049898
0.000951196
0.00121663
0.000196679
0.000143079
-0.00594206
-0.00184224
-0.000463176
-9.32161e-05
-1.55161e-05
-2.21481e-06
-2.80309e-07
-2.8977e-08
8.45458e-09
1.45499e-09
2.57619e-09
8.77026e-09
7.42033e-09
-2.82806e-08
-2.86412e-07
-2.34053e-06
-1.65219e-05
-9.83113e-05
-0.000481683
-0.00189898
-0.00591377
-0.0164201
-0.0167926
-0.0274825
-0.0249459
-0.00895329
-0.0087664
0.0135491
0.0012613
-0.00156863
-0.00120981
0.00566265
0.000165799
-0.00469557
-0.00445157
0.00451001
-3.39423e-05
-0.00514823
-0.00490129
0.00394383
-4.90918e-05
-0.00647328
-0.00617357
0.00202965
-0.0105506
0.00818678
0.00795713
0.00831453
0.00727538
-0.00879878
0.000480168
0.00266802
-0.0105207
0.00198188
-0.00937444
0.0100073
-0.0194709
-0.000450967
-0.0187458
0.0178539
0.0202723
0.0183265
0.0179329
0.0196871
0.0178945
-0.020442
-0.000630269
-0.0183061
0.00883021
0.00950639
0.00885388
0.0094192
-0.000495351
-0.0196733
-0.0194162
0.0100496
0.0183201
0.0183008
0.016253
0.0203562
0.0214908
0.0159123
0.00409913
0.00776012
0.00347164
-0.00209896
0.00166855
0.00064768
-0.00122452
0.000402506
0.000165943
-0.000405842
0.000113277
5.47759e-05
-9.9645e-05
2.55062e-05
1.18954e-05
-1.88761e-05
5.03027e-06
2.49196e-06
-2.72985e-06
7.31298e-07
3.26999e-07
-3.26073e-07
8.36042e-08
3.64883e-08
-3.11452e-08
4.80736e-09
9.34264e-10
-3.17768e-09
-5.32687e-10
-1.1432e-09
-2.34723e-09
-9.4497e-10
-7.77406e-10
7.0983e-10
7.26612e-10
5.06009e-10
1.81377e-09
4.50584e-11
5.79996e-10
1.44084e-09
-8.9926e-10
6.34196e-11
8.66236e-10
-1.54767e-09
-6.92297e-10
-1.03405e-09
-5.03547e-09
-1.00238e-09
-2.15824e-08
-4.38559e-10
-5.73961e-08
7.1269e-09
1.96201e-07
-1.7528e-07
2.38315e-08
-4.60605e-07
1.90327e-07
1.76644e-06
-1.19914e-06
5.27307e-07
4.15514e-06
1.55584e-06
-1.00195e-05
3.14546e-06
2.95991e-05
7.63311e-06
-6.87825e-05
1.51321e-05
0.000173698
2.69382e-05
-0.000378685
5.71438e-05
0.000820769
7.27155e-05
-0.00163034
0.000172988
0.00305839
0.00010324
-0.00532306
0.000458668
0.00869044
0.000176231
-0.000610501
-0.0109084
-0.00793622
0.000635671
0.00603255
-0.000208257
-0.00370071
-0.00256804
0.00034735
0.0019247
-5.17813e-05
-0.000946928
-0.000651052
0.000121895
0.000463406
-8.74239e-06
-0.00018551
-0.000127381
3.23572e-05
8.83454e-05
-3.66518e-07
-2.80844e-05
-1.95624e-05
6.59629e-06
1.36328e-05
1.41833e-07
-3.34916e-06
-2.41571e-06
1.04414e-06
1.75911e-06
5.3447e-08
-3.11447e-07
-2.49466e-07
1.34471e-07
2.00207e-07
1.16343e-08
-2.2658e-08
-2.12732e-08
1.47293e-08
2.2628e-08
2.6858e-09
4.48e-09
2.73686e-09
-3.47277e-10
-1.30133e-09
1.02208e-08
1.87391e-09
1.27869e-08
6.32966e-09
1.73223e-09
1.33838e-09
-4.22811e-09
8.19477e-10
2.11197e-08
-1.73148e-08
4.4379e-09
-4.42677e-08
2.67122e-08
-1.21618e-07
7.50803e-08
4.93311e-07
2.6642e-07
8.37547e-08
1.52809e-08
8.9959e-09
6.45441e-08
6.27719e-09
7.19696e-10
1.34201e-09
1.02224e-09
1.59658e-09
6.17175e-10
3.96176e-10
1.48008e-13
-1.09459e-09
-1.28787e-09
-1.29558e-09
-2.27279e-09
-2.41263e-08
-1.39544e-08
-1.91226e-07
-1.86456e-07
-1.3973e-07
2.74237e-07
2.31115e-07
-1.35349e-07
1.2946e-07
7.9023e-09
1.16877e-08
2.56599e-08
1.2002e-10
-1.70419e-07
2.6793e-07
-2.4823e-09
-1.39939e-06
2.52524e-06
3.31719e-07
-1.08839e-06
-1.33323e-06
-1.10948e-06
-7.65421e-06
-3.34183e-05
-3.55023e-05
-3.36018e-05
-7.71072e-06
-1.35262e-06
-1.09014e-06
-1.22909e-06
-1.73283e-07
-1.35707e-07
-1.6571e-07
2.46105e-07
4.95382e-07
-1.61883e-06
4.59834e-06
-1.2751e-05
-1.39011e-06
-2.91386e-06
-3.86309e-07
1.39707e-06
-2.10011e-07
-3.01597e-07
-6.81462e-08
1.51461e-07
-6.49428e-08
-3.78945e-08
-2.92748e-07
-1.98167e-07
5.55099e-07
-1.16835e-06
-2.37472e-07
-5.55575e-06
-8.66939e-07
1.27347e-05
-1.39795e-05
-1.08974e-06
-3.55324e-05
-1.15408e-06
8.32461e-05
-8.65114e-05
-6.39814e-07
-0.000197696
2.80654e-06
0.000445776
-0.000451772
-1.38943e-06
-0.000914846
6.01585e-05
0.00183689
-0.00342129
0.000104161
0.00588233
-0.00949337
5.16451e-05
-0.000436559
-2.47001e-05
1.79596e-05
1.74434e-05
7.08589e-06
1.9157e-06
3.85391e-07
6.11855e-08
1.04227e-08
1.98991e-09
-2.93919e-09
7.41979e-09
-7.51621e-09
-1.79563e-09
-9.23769e-11
-2.09401e-10
-6.43251e-09
-6.92063e-10
-1.44489e-09
-6.76202e-10
-4.24329e-10
-6.35192e-10
-5.73834e-10
-1.08015e-09
-2.00404e-09
-2.14786e-08
-1.3736e-08
1.88199e-08
6.25775e-09
-2.3954e-08
-2.69523e-08
-1.2054e-08
-2.19384e-09
-2.83223e-10
-2.35344e-10
-1.92472e-09
-2.60077e-09
2.96574e-09
-1.56387e-09
-1.05486e-08
-4.09761e-08
-9.26148e-08
-1.07524e-08
-2.68188e-09
2.28768e-08
-6.74398e-09
-6.80992e-08
-2.11069e-08
1.50593e-07
-2.084e-07
-3.93708e-08
-6.14218e-07
-5.56961e-08
-1.77031e-06
-3.38202e-08
-4.68449e-06
2.44843e-07
1.33098e-05
-1.28929e-05
4.92033e-07
-3.11001e-05
5.65103e-06
8.57437e-05
-0.000189293
2.13497e-05
0.000444638
8.66462e-06
4.0421e-06
1.15368e-06
2.38745e-07
3.84681e-08
9.91303e-09
-1.36075e-10
-5.46578e-11
-1.27856e-08
-6.85437e-08
-2.79507e-08
-2.70696e-08
-1.08573e-08
-1.30349e-08
-3.72638e-10
-4.37155e-10
-5.74241e-10
3.45608e-09
2.66979e-09
7.06612e-08
7.10388e-08
8.40388e-08
7.12251e-07
3.55232e-06
2.36946e-05
0.000100851
-0.000474051
-5.62937e-05
-0.00139428
0.00210366
-0.0190026
-0.00576489
0.000665001
-0.00141741
0.0108576
-0.00994466
-0.0269593
-0.0117234
0.0005019
0.00355949
0.000931285
-0.0252162
-0.0114103
-0.00797715
0.0130052
0.00130162
-0.00128295
-0.00219489
0.0062601
0.000209659
-0.00436768
-0.00532575
0.00531423
-2.33465e-05
-0.00483932
-0.00566232
0.00486524
-4.86106e-05
-0.00628844
-0.0065697
0.000855121
-0.000334371
3.34673e-05
7.12858e-06
0.00605573
-0.00551299
0.000181769
0.00324739
-1.8566e-05
-5.54937e-05
-0.00403085
0.000319768
-0.00243716
0.00418825
0.000376618
-0.0069674
-0.012508
0.00630789
-0.000904258
0.00151277
0.00441382
-0.000543541
0.0125455
0.00889629
0.00988635
-0.00927331
0.000736735
-0.00773127
-0.00126422
-0.00854068
0.000802227
-0.00817892
-0.00126476
-0.00823511
0.000804238
-0.00884523
0.00914478
0.00902264
-0.000674799
-0.0245223
-0.0195396
0.0100268
-0.00764875
0.0120657
0.0070984
0.00834367
-0.00925768
0.00226024
0.00173723
-0.0107823
0.00353355
0.00634401
-0.00879037
0.0163349
-0.00898192
0.0013718
-0.00709116
0.000789555
-0.00751966
-0.00580453
0.00070213
-0.000448214
-2.53792e-05
-5.43264e-06
2.40968e-05
1.91211e-05
7.44094e-06
1.97381e-06
3.92673e-07
6.19312e-08
1.04724e-08
2.04761e-09
2.50451e-09
2.31162e-09
5.47757e-10
1.02846e-09
6.25898e-10
6.16707e-10
3.65242e-11
1.9543e-09
4.57839e-09
2.54933e-09
2.4509e-09
5.73265e-09
7.34514e-10
-7.35748e-10
8.25483e-10
3.3709e-09
1.88444e-09
6.6346e-10
7.58658e-10
2.63723e-10
1.21677e-09
2.5143e-09
5.88949e-09
4.617e-09
-2.55168e-10
9.42764e-09
9.45135e-09
4.61977e-09
5.89571e-09
6.84861e-09
1.30041e-09
-1.02126e-09
1.32735e-09
2.46136e-09
2.43543e-08
2.29011e-08
1.45511e-08
1.08557e-08
1.33074e-08
6.48531e-09
1.80265e-09
1.96519e-09
4.09204e-09
1.95465e-08
8.31389e-08
1.77635e-07
-8.36693e-07
-1.06397e-05
-5.50082e-05
5.74164e-06
-3.29043e-05
0.000156664
-0.00044225
0.000116281
0.00137458
-0.00159723
-0.000317285
-0.000355382
-0.0143138
0.013694
-0.000456455
-0.000325789
0.00117038
-0.00126596
-0.000545037
0.00256778
0.0038972
0.00222101
0.00846865
-0.00324294
0.00204984
0.0113819
0.0109834
-0.00165679
0.00139351
-0.00012525
0.000532386
-0.00016713
4.59869e-05
-0.000742173
7.55721e-05
2.70906e-05
1.75525e-07
-1.22939e-06
-4.05898e-07
-2.23878e-07
-5.38727e-08
4.88679e-08
8.33168e-09
1.59389e-08
1.16503e-07
9.08734e-07
5.83255e-06
3.03722e-05
0.000128489
0.000460968
0.00014501
2.74293e-05
9.89247e-05
2.42337e-05
1.72339e-06
-4.95567e-07
1.15111e-06
2.56452e-07
4.50252e-07
8.813e-08
-4.58305e-07
4.93014e-07
-1.18104e-06
4.14138e-06
-9.91823e-06
1.17347e-06
-4.13512e-06
1.76096e-06
1.91905e-07
1.87646e-07
3.94699e-08
2.52666e-08
1.99815e-07
6.35389e-09
6.59957e-10
1.47894e-09
4.54456e-09
1.01981e-08
2.6084e-08
3.1272e-10
1.03454e-08
6.92173e-09
3.4255e-10
1.25063e-09
-2.67388e-11
-5.71777e-10
-2.64859e-09
-1.91876e-09
-5.64606e-10
-2.89696e-10
-6.67415e-09
-1.59064e-10
5.62065e-10
1.13645e-09
6.88099e-10
-1.85629e-11
7.3506e-10
1.14307e-09
1.33847e-09
3.58734e-10
2.44058e-10
1.03876e-08
2.4225e-09
2.48723e-09
2.35713e-10
4.64146e-09
1.9821e-09
2.59034e-08
2.73178e-08
1.19269e-08
2.19682e-09
1.25978e-08
2.7434e-08
1.83187e-07
1.24785e-07
7.59779e-08
8.72965e-07
5.3519e-07
2.47443e-07
1.35941e-07
1.21986e-06
5.691e-07
1.34785e-05
-3.11867e-05
2.95932e-05
-6.87984e-05
0.000175434
-0.000384447
2.43409e-05
-0.000192291
8.64065e-05
5.93997e-06
4.35777e-06
4.87341e-06
3.19097e-06
2.11037e-05
1.52818e-05
4.48268e-06
1.52742e-06
5.96997e-07
6.41784e-07
2.9397e-06
3.24113e-06
7.2204e-06
1.75097e-05
-2.57414e-05
-6.59727e-05
-3.09459e-05
1.08984e-05
-8.21023e-06
-4.04272e-06
-1.05315e-06
-1.93605e-07
-6.94047e-08
-8.19688e-08
4.06804e-09
-3.46867e-07
-4.23271e-07
7.265e-08
-1.19027e-06
-1.57155e-06
-2.0312e-06
-4.25138e-07
-2.01879e-07
-1.94567e-07
-8.09044e-08
-3.38542e-10
2.79152e-09
5.33242e-08
4.26262e-07
5.82336e-07
-1.96314e-06
-3.38255e-06
2.67329e-06
3.25357e-06
-1.27832e-07
6.04323e-06
2.39216e-05
0.000121393
4.86374e-05
7.20104e-05
0.00286367
-0.000261334
0.000405369
3.58124e-05
9.31261e-05
0.00559922
-0.00011383
-0.0006845
0.005793
0.00251115
-0.0250189
-0.00960834
-0.0113044
0.0137818
-0.0103465
-0.0111201
0.0127056
-0.0121852
-0.000498608
-0.000752485
-0.0148423
0.0139476
0.000184967
-0.000372369
0.000183915
0.000339365
0.000394163
0.00604713
0.0025621
-0.0103121
-0.0105464
0.0150429
0.00123808
-0.00338416
-0.000931843
0.00531135
0.000144692
-0.00635474
-0.0040477
0.0040637
-1.75591e-05
-0.00662679
-0.00448473
0.00352502
-8.19328e-05
0.0057716
0.00560333
0.000209643
0.00955732
-0.00973526
8.20286e-05
-0.00617617
-0.00010574
-7.99584e-05
-1.18677e-05
1.45046e-06
1.22925e-06
2.56826e-07
2.07718e-08
-1.83664e-09
-8.57117e-10
-6.89037e-08
-1.71766e-07
4.62895e-08
-1.37076e-06
2.49885e-06
6.37627e-07
-1.01936e-05
2.04068e-05
3.54703e-05
-8.4732e-05
0.000222393
-0.000463876
-3.11256e-05
-0.000151716
-3.08014e-06
7.75135e-05
-7.52863e-06
-2.3275e-05
-1.61485e-06
1.14003e-05
-5.89501e-06
-3.79333e-06
-2.12388e-05
-7.78939e-06
3.90485e-05
-6.15314e-05
-2.27423e-06
-0.000234638
-1.18596e-05
0.00049258
-0.000461125
-4.03125e-06
-0.000959303
-2.18036e-07
-0.00186848
-7.04704e-06
-0.00344643
-1.09763e-05
0.00590337
-0.0061419
-3.0555e-05
0.00964725
-3.0945e-05
-0.00948431
0.00943638
-2.96307e-05
-0.0059755
0.00605603
-0.00953776
1.83443e-05
2.59447e-05
7.53118e-05
1.49263e-05
-4.49525e-06
-3.57223e-06
-1.15555e-06
-2.49805e-07
-6.42828e-07
-3.58094e-06
-7.03762e-06
-6.84421e-06
-3.09578e-05
-3.3892e-05
-6.46921e-05
0.000132902
4.10344e-05
-0.000341768
0.000678529
0.00110812
-0.00204405
0.00426682
-0.00693253
1.05405e-05
-0.00360991
0.000345985
0.00187729
-8.4195e-05
-0.000813229
2.29033e-05
0.000429098
-0.000174561
-0.000109151
-0.000647084
-9.94377e-05
0.00111666
-0.00141721
5.10841e-05
-0.00408699
-3.81135e-07
0.00703463
-0.00601293
2.49777e-05
0.00963926
7.93484e-05
-0.0110906
0.00665859
9.29533e-05
-0.00477523
0.00376904
-0.0082688
-9.92004e-05
-0.0026155
-0.00115875
-0.00181758
-0.00291825
0.00604653
-0.0127897
0.00259658
-0.00491451
-0.00145314
-0.000350837
-6.963e-05
-1.1254e-05
-1.48529e-06
-1.58274e-07
-8.96503e-09
1.67507e-08
2.56925e-09
-6.78665e-10
5.1631e-10
-2.52524e-09
7.75746e-09
-1.40865e-08
2.87162e-09
-9.63851e-10
-4.22149e-09
-2.03291e-09
1.28161e-08
-2.27056e-08
-6.00527e-09
-6.59646e-08
-8.19616e-09
-2.00571e-07
-4.7601e-09
-5.53799e-07
4.62842e-08
1.73531e-06
-1.62638e-06
1.24864e-07
-4.15032e-06
1.14634e-06
1.3479e-05
4.2602e-07
2.38453e-07
5.03673e-06
5.06101e-08
6.07907e-07
-4.47788e-09
-4.50616e-08
-7.52374e-09
-2.93337e-09
-3.5938e-09
2.79622e-09
-2.34532e-09
-2.37688e-09
-6.64057e-10
1.47315e-09
-2.56469e-08
-2.57963e-08
-1.25737e-07
-4.25766e-08
-6.57792e-07
-1.50991e-07
1.50302e-06
-1.83178e-06
-2.36178e-07
-5.06699e-06
-3.0072e-07
-1.35388e-05
-1.74645e-07
-3.35393e-05
1.00227e-06
8.53357e-05
-8.47882e-05
1.0578e-06
0.000206146
1.83732e-06
8.56441e-07
3.54508e-05
-1.66102e-07
-1.11451e-06
-2.54469e-07
-1.46728e-07
4.53175e-07
-2.49241e-08
4.37734e-08
-5.90268e-09
-2.72866e-08
5.30186e-08
-3.44336e-08
-2.38534e-08
-2.39363e-07
2.67915e-07
-3.01172e-07
-4.61475e-07
-2.77253e-06
-1.37363e-06
-9.33383e-06
-9.88343e-07
-3.98025e-05
-3.83986e-06
8.84837e-05
-8.90155e-05
-3.32346e-06
-0.000205851
-2.54242e-06
-0.000450665
-1.86269e-06
-0.000934606
3.2152e-06
0.00184989
-0.00190335
-1.81976e-05
0.00352996
3.30751e-06
5.98873e-06
4.32944e-06
5.52633e-06
7.85168e-06
2.12574e-06
4.27593e-07
6.79569e-08
8.18658e-08
6.87236e-08
3.8654e-07
1.04412e-06
1.30409e-06
7.54305e-06
3.43222e-05
1.22185e-05
5.43413e-06
1.69978e-06
1.95805e-06
4.55153e-07
1.07798e-06
1.97534e-07
-1.33956e-10
-3.0098e-07
1.39317e-07
-2.92587e-07
1.60632e-06
1.08563e-06
-2.7859e-06
-2.86537e-06
1.63652e-06
1.46952e-06
1.08661e-06
-2.68147e-06
-2.80464e-06
1.69925e-06
-2.73992e-07
1.38235e-07
-2.87537e-07
1.79733e-07
2.00597e-07
1.97896e-07
1.81912e-07
1.38527e-07
-2.67442e-07
-2.96727e-07
-1.19005e-09
1.4925e-06
1.0864e-06
-2.74325e-06
-2.76858e-06
-3.52749e-07
1.09156e-05
6.96379e-06
-2.27329e-05
-2.17384e-05
-2.21111e-05
-2.27135e-05
6.95239e-06
1.1617e-05
1.18645e-05
-3.42112e-07
1.07337e-05
6.99177e-06
-2.10925e-05
-2.32211e-05
1.25359e-05
-3.40334e-07
-2.34063e-06
-3.39748e-06
1.03644e-06
1.20936e-06
5.6163e-10
-2.41608e-07
-3.18299e-07
1.3301e-07
1.44431e-07
2.04416e-07
-2.13244e-08
1.42032e-08
-2.76441e-08
-3.93928e-10
-2.72642e-08
1.41601e-08
-2.65441e-08
-5.45716e-10
-2.83658e-08
1.41215e-08
-2.0826e-08
2.01984e-07
1.45371e-07
-5.85909e-10
-8.77529e-09
2.82367e-08
-7.75863e-09
-1.359e-09
-1.94372e-09
-3.0052e-09
-2.85806e-09
-2.86069e-09
-1.65718e-09
-8.50511e-09
-8.67143e-09
-2.97279e-09
-1.94939e-09
-1.36487e-09
-7.61633e-10
1.77212e-09
1.04322e-09
6.95779e-09
-2.83685e-09
2.28308e-08
2.52723e-08
2.50413e-08
2.29478e-08
2.4995e-08
1.73658e-08
-1.78793e-09
5.73435e-09
1.69579e-09
-8.246e-10
1.05152e-09
2.36482e-09
2.2833e-08
1.82641e-07
1.90576e-07
1.34182e-06
7.69382e-06
4.31284e-06
-4.44449e-06
7.2873e-05
3.52065e-05
-0.000141574
-0.000145433
-0.000134502
-0.000152983
3.54545e-05
6.66091e-05
7.79671e-05
-4.49668e-06
-1.90068e-05
-2.856e-05
6.58135e-06
9.15648e-06
1.37483e-05
1.78278e-07
7.73029e-07
-2.80805e-06
2.41656e-06
5.18633e-06
-1.93615e-05
1.29634e-05
2.84543e-05
-0.000103003
5.78996e-05
0.000141567
-0.0004031
0.00026896
0.000780153
-0.000448213
0.000973645
-0.000277316
0.00025603
-7.2271e-05
5.63871e-05
-1.334e-05
9.87795e-06
-1.88471e-06
1.37302e-06
3.47139e-07
-3.25317e-07
1.76881e-06
5.57269e-08
8.75769e-08
-3.13838e-08
3.75841e-08
1.41655e-07
-2.19965e-07
-2.81653e-08
5.07583e-09
1.1837e-08
-2.3288e-08
1.45396e-08
-2.0623e-08
-4.29369e-10
-8.69075e-09
2.79088e-08
-4.19296e-09
-8.80649e-10
-2.16552e-09
-1.26027e-09
-5.18049e-10
-3.2421e-09
8.62884e-10
5.15655e-09
-9.3041e-09
2.71325e-09
2.27622e-08
1.72998e-08
2.51585e-08
-1.73554e-09
-7.19528e-09
-7.59439e-09
2.8648e-08
2.81506e-07
2.93594e-07
2.46704e-06
1.72182e-05
9.7083e-05
3.26441e-05
-0.000124131
-0.00018996
8.94757e-05
5.87668e-05
-1.20637e-05
-1.49648e-06
-1.32766e-07
-1.46679e-07
2.20126e-06
1.48025e-05
8.16409e-05
-7.16967e-05
-3.44286e-05
0.000396696
0.000137809
-0.00067614
-0.000789001
-0.000632317
-0.000992426
0.00012225
0.000310287
0.000475311
-5.46027e-06
2.93536e-05
7.01726e-06
4.34025e-06
1.29215e-05
2.51701e-05
-0.000948035
0.000845708
-0.00168423
0.000143671
0.00017092
6.90778e-05
5.62949e-05
1.12952e-05
1.00042e-06
0.000453225
1.66431e-05
-8.88748e-06
0.00189499
7.91344e-05
1.54486e-05
0.000119373
0.000307854
-4.06031e-05
2.48778e-06
1.05962e-05
9.69995e-06
5.93207e-06
1.06835e-05
1.92121e-05
1.87344e-06
-1.22195e-05
-6.79532e-06
-4.12484e-06
-3.98474e-06
-1.04728e-06
-4.21233e-07
-3.57271e-07
-9.32327e-07
-3.6454e-06
6.01479e-06
1.77885e-05
2.54762e-06
1.63014e-06
1.55874e-06
1.52305e-06
1.48044e-07
1.62655e-07
1.37536e-08
2.99489e-08
1.01929e-08
2.94387e-07
1.23599e-05
1.25511e-05
7.3548e-05
7.39668e-05
8.03034e-05
0.000320785
0.000316185
0.000405326
9.75765e-05
-0.00145657
0.00264373
0.000763572
-0.00469504
0.00119147
0.000963984
0.000188136
-0.000173217
-0.0183252
-0.021004
-0.0369273
0.00964892
0.00255581
0.0150219
-0.0055731
0.0104793
-0.000980913
-0.0111133
0.0105167
-0.000146411
0.00578291
-0.000240983
0.00971083
-0.0105939
-0.000807785
-0.000246711
-0.000162104
0.000212558
-0.000778783
0.00582038
-0.000148362
0.000461883
0.000105575
7.67393e-06
1.37705e-05
-7.95637e-06
-7.88212e-06
-0.000102691
-9.62201e-05
-0.000117131
-0.000167397
-0.000169401
-6.87184e-05
-4.52754e-05
-1.52664e-05
0.000132644
-0.000329429
3.46146e-06
-0.00110946
-1.9894e-05
0.00214504
-0.00189706
1.12125e-05
-0.00349729
1.22902e-05
0.00345252
-7.12717e-07
2.2949e-07
-2.8121e-06
-8.07391e-06
4.39451e-06
0.000207377
1.23224e-05
-1.18904e-06
-3.6324e-06
-1.59428e-06
-1.32331e-06
-4.65249e-08
-1.2526e-08
-2.15812e-09
5.46784e-07
-6.17054e-08
1.56873e-06
-9.80102e-09
1.68396e-07
5.65727e-08
-1.49089e-09
1.70033e-08
4.12314e-09
5.12195e-11
-3.09186e-10
-6.03783e-10
-3.20415e-07
-7.4633e-07
4.10099e-06
-4.90234e-08
-1.80118e-06
5.17444e-06
-2.1897e-06
4.49865e-07
-1.12863e-05
2.08895e-05
-1.25287e-05
-2.34303e-05
-0.000131641
-3.37859e-05
0.000236411
-5.7067e-05
-5.85055e-05
4.21938e-05
6.31947e-06
-2.79373e-06
3.10951e-05
-1.19165e-06
3.33787e-05
-3.14535e-06
-5.44734e-06
0.000191817
-2.316e-06
0.00044661
-2.56582e-06
1.17032e-05
0.000937348
-0.00023906
0.000660283
-0.000253429
-0.000410372
-0.00258277
-0.00013632
0.0025019
-0.00086086
0.000169309
0.000203589
-0.00110986
-0.00417953
-0.000349476
-0.000585827
-0.000143405
0.000196897
0.00011676
0.00352014
1.7648e-05
5.40501e-05
8.40262e-05
7.94687e-06
-0.000190668
2.52203e-05
2.44049e-05
2.60714e-06
0.00188564
0.000937803
-2.69315e-06
-7.1643e-07
-1.14633e-05
-4.99678e-05
-9.89055e-05
-0.000484545
-0.000198033
-0.000124569
-2.86977e-05
-1.22412e-06
0.00096441
6.04631e-06
4.7522e-06
1.68193e-06
5.83162e-06
8.99885e-07
1.14059e-07
3.9185e-08
2.7506e-07
3.03446e-05
0.000126
0.000419176
5.52519e-06
0.000304058
8.67102e-05
-0.000465176
0.0018388
0.00486757
-0.00324554
0.0180763
0.00400122
0.00245801
0.00183554
0.000968338
0.000333658
8.01969e-05
1.46559e-05
2.1799e-06
2.78104e-07
2.8869e-07
3.00119e-08
-1.17609e-08
-1.19296e-08
-8.7165e-09
-2.90924e-09
-7.26181e-09
-4.17077e-09
2.73561e-08
2.89512e-07
-1.3386e-07
-1.24585e-09
1.2225e-06
1.67169e-06
1.29608e-06
1.96086e-07
8.04552e-08
1.24424e-08
6.55744e-08
1.85498e-07
1.2415e-07
1.45039e-08
3.3004e-09
5.11759e-08
3.87122e-08
8.67142e-07
1.02038e-06
1.06547e-06
4.43051e-07
3.57626e-07
1.50049e-06
1.87797e-06
4.23006e-06
7.46739e-06
3.38424e-05
3.47463e-05
0.000120364
3.83386e-06
-0.000176872
-0.000735484
0.00013772
-0.000714006
0.00142525
0.00041015
-0.00277348
-0.00287507
0.00147064
0.00137109
0.000399814
-0.00261851
-0.00312359
0.00159556
-0.000180416
0.00130872
0.00200559
-2.87215e-05
7.35403e-05
-0.00031671
0.000427477
0.00140884
0.00322053
0.00351232
0.00244491
0.010337
0.0242
0.00512144
0.0129339
0.0191669
-0.0024771
-0.00102541
0.00105328
0.000347361
-0.000284068
-6.67858e-05
0.000339498
0.000367394
0.00035811
0.00034415
0.000137434
-0.000764243
-0.000698951
-0.000178133
0.00139082
0.000408879
-0.00299364
-0.00273847
-0.000644159
0.00430385
0.00460941
0.00405232
-0.000647852
-5.79605e-05
-9.96376e-05
1.90189e-05
3.38115e-06
2.29441e-05
-2.26936e-06
-1.40014e-06
-2.1802e-05
-1.36491e-05
-0.000187103
0.00180081
-0.000185408
-8.16834e-05
-0.000184287
-0.000310789
-0.000207308
-0.000325643
-0.000114141
0.00439816
-0.000170637
4.22584e-05
9.67406e-06
4.79524e-06
5.58563e-05
6.37388e-05
-0.0025139
0.0113557
-0.0073397
-0.0231974
-0.0241778
0.00273679
-0.0120707
0.00554039
0.00196436
-0.00745605