/*--------------------------------*- C++ -*----------------------------------*\
| =========                 |                                                 |
| \\      /  F ield         | OpenFOAM: The Open Source CFD Toolbox           |
|  \\    /   O peration     | Version:  2306                                  |
|   \\  /    A nd           | Website:  www.openfoam.com                      |
|    \\/     M anipulation  |                                                 |
\*---------------------------------------------------------------------------*/
FoamFile
{
    version     2.0;
    format      ascii;
    arch        "LSB;label=32;scalar=64";
    class       volScalarField;
    location    "0.3";
    object      gradTz;
}
// * * * * * * * * * * * * * * * * * * * * * * * * * * * * * * * * * * * * * //

dimensions      [0 -1 0 1 0 0 0];

internalField   nonuniform List<scalar> 
5322
(
-0.0490162
-0.0349138
-0.0173815
-0.0184343
-0.00626261
-0.00164578
-0.000340644
-5.68149e-05
-7.86577e-06
-9.52033e-07
-1.16775e-07
-2.98712e-08
-7.7969e-09
-1.85497e-08
-2.52665e-08
-4.61063e-08
-4.33112e-08
-4.91977e-08
-1.17049e-07
-3.73055e-07
-1.2699e-06
-3.74745e-06
-1.17862e-05
-3.1481e-05
-8.93702e-05
-0.000212451
-0.000541345
-0.00115478
-0.00259968
-0.00487393
-0.00961558
-0.0159735
-0.0271082
-0.038358
-0.0524292
-0.0535654
-0.0682426
-0.0632671
-0.0649061
-0.0514922
-0.0597844
-0.0616868
-0.0503113
-0.0615665
-0.0609738
-0.0513228
-0.0625668
-0.059463
-0.0510985
-0.0625587
-0.0745723
-0.0449047
-0.0662912
-0.0515458
-0.0404489
-0.0481767
-0.0657167
-0.0468791
-0.0395805
-0.0475775
-0.0660818
-0.0474075
-0.0394611
-0.0464607
-0.0662018
-0.0493329
-0.0395202
-0.0444714
-0.0657358
-0.0534725
-0.0334424
-0.0429826
-0.0407936
-0.040116
-0.040318
-0.0401247
-0.040151
-0.0401292
-0.0412399
-0.0402166
-0.0415169
-0.0380162
-0.0395749
-0.0446759
-0.0247646
-0.0373512
-0.0665211
-0.0498708
-0.0476788
-0.0379504
-0.0445015
-0.0172146
-0.0179552
-0.0178432
-0.0277531
-0.0354463
-0.0290635
-0.0357269
-0.067259
-0.0480618
-0.0491353
-0.0382252
-0.0360981
-0.0276136
-0.0303862
-0.0284908
-0.0294689
-0.0187014
-0.00635038
-0.00168925
-0.000358951
-6.2333e-05
-9.04875e-06
-1.13621e-06
-1.51979e-07
-4.2212e-08
-4.03171e-08
-3.11759e-08
-9.11151e-08
-2.4997e-08
-1.60426e-08
-1.0736e-08
-9.98435e-09
-8.20309e-09
-7.51509e-09
-7.95537e-09
-9.80084e-09
-1.09039e-08
-1.11346e-08
-1.26254e-08
-1.3119e-08
-1.24999e-08
-1.292e-08
-1.25205e-08
-1.08235e-08
-1.02994e-08
-9.54618e-09
-7.41746e-09
-7.1484e-09
-7.77743e-09
-9.71773e-09
-1.603e-08
-2.45947e-08
-3.08355e-08
-4.01776e-08
-9.0661e-08
-3.07052e-08
-3.0805e-08
-4.10679e-08
-4.48713e-08
-1.0897e-07
-3.36897e-08
-3.36607e-08
-4.45992e-08
-4.12288e-08
-1.09066e-07
-3.10435e-08
-3.06988e-08
-1.60189e-08
-2.47834e-08
-4.50754e-08
-4.28775e-08
-1.62378e-07
-4.74403e-07
-1.37437e-07
-1.17335e-07
-4.88568e-08
-3.63287e-08
-1.15071e-08
-1.5296e-08
-1.81936e-08
-1.95328e-08
-5.09998e-08
-3.08465e-08
-5.15962e-08
-1.89341e-07
-1.84974e-07
-5.26542e-07
-2.41552e-07
-5.44899e-07
-1.6797e-06
-1.66432e-06
-4.68027e-06
-2.2043e-06
-4.79332e-06
-1.38192e-05
-1.37525e-05
-3.62966e-05
-1.78485e-05
-3.68358e-05
-9.75245e-05
-9.72765e-05
-0.000235611
-0.000121914
-0.000237753
-0.000569985
-0.000569392
-0.00124499
-0.00068302
-0.00125186
-0.0026857
-0.00268614
-0.00521693
-0.00305751
-0.00523268
-0.0098987
-0.00991276
-0.0168354
-0.01059
-0.016869
-0.0276155
-0.0275924
-0.0357284
-0.0671589
-0.048003
-0.0479184
-0.0382574
-0.049128
-0.0491098
-0.0179608
-0.0179172
-0.0278494
-0.0357445
-0.0291176
-0.0368045
-0.0676274
-0.0484923
-0.0477495
-0.0384441
-0.0355822
-0.0276295
-0.0290164
-0.0284408
-0.018669
-0.00637224
-0.0016999
-0.000361466
-6.27082e-05
-9.08463e-06
-1.13785e-06
-1.5186e-07
-4.20744e-08
-4.12149e-08
-4.50227e-08
-4.50002e-08
-4.14189e-08
-1.10314e-07
-3.42759e-08
-3.14722e-08
-2.04969e-08
-1.36896e-08
-4.50341e-08
-3.42807e-08
-1.1001e-07
-3.1293e-08
-4.10866e-08
-1.09962e-08
-1.11385e-08
-1.28937e-08
-2.04473e-08
-1.34795e-08
-1.30958e-08
-8.90031e-09
-2.1177e-08
-5.33121e-08
-5.33094e-08
-5.2579e-08
-1.90665e-07
-5.39027e-07
-1.70348e-06
-4.75647e-06
-1.39798e-05
-3.66428e-05
-9.82895e-05
-0.000236659
-0.000572736
-0.00124637
-0.00269466
-0.00521268
-0.00993367
-0.0168042
-0.0278304
-0.0354276
-0.0673186
-0.0359159
-0.0290611
-0.0275474
-0.0169196
-0.010597
-0.00989932
-0.00524624
-0.00306187
-0.00269149
-0.00125652
-0.000685301
-0.000572899
-0.000239447
-0.000122761
-9.84829e-05
-3.73038e-05
-1.8067e-05
-1.40474e-05
-4.88657e-06
-2.24519e-06
-1.72051e-06
-5.59103e-07
-2.47485e-07
-1.95113e-07
-8.4659e-08
-1.94267e-07
-5.59029e-07
-2.46586e-07
-1.89679e-07
-5.2112e-08
-3.16677e-08
-2.00528e-08
-7.62072e-09
-1.83932e-08
-4.57518e-08
-1.7304e-07
-5.21401e-07
-1.5969e-06
-4.71137e-06
-1.35387e-05
-3.67534e-05
-9.75526e-05
-0.000239097
-0.000578121
-0.00126343
-0.00275348
-0.00527184
-0.0102303
-0.0167926
-0.0283518
-0.0357551
-0.0672374
-0.0387082
-0.0287262
-0.0313562
-0.0188576
-0.0104853
-0.0111683
-0.00570656
-0.00300861
-0.00296898
-0.00132722
-0.000663981
-0.000615646
-0.000244632
-0.000116585
-0.000102302
-3.64296e-05
-1.66688e-05
-1.38571e-05
-4.47271e-06
-1.99028e-06
-1.57628e-06
-4.69459e-07
-2.0697e-07
-1.61135e-07
-4.23186e-08
-2.47926e-08
-1.52283e-08
-7.81255e-09
-1.08893e-08
-3.45139e-08
-1.09841e-08
-1.26206e-08
-2.57435e-08
-3.46096e-08
-1.33617e-07
-4.355e-07
-4.43566e-07
-5.0585e-07
-2.09274e-07
-1.56857e-07
-1.67055e-07
-4.46646e-08
-2.47625e-08
-4.11259e-08
-5.9894e-08
-8.27772e-08
-2.92799e-08
-9.92809e-09
-1.27336e-08
-4.03197e-08
-1.07011e-07
-7.50459e-08
-5.01018e-08
-5.18872e-08
-1.88121e-07
-5.4442e-07
-7.18012e-07
-1.66996e-06
-4.79361e-06
-1.37553e-05
-3.68925e-05
-4.61554e-05
-9.73157e-05
-0.000238322
-0.00057039
-0.00125465
-0.00147101
-0.00269287
-0.00523666
-0.00992317
-0.0168523
-0.0178519
-0.0178975
-0.00607692
-0.0061108
-0.00161546
-0.00148135
-0.00272384
-0.00528195
-0.0030909
-0.0053612
-0.0101113
-0.0101056
-0.0168402
-0.0107205
-0.0174528
-0.0278357
-0.0326529
-0.036381
-0.0717666
-0.0508896
-0.0473347
-0.0406563
-0.049679
-0.0176078
-0.0166226
-0.0196695
-0.009437
-0.0111271
-0.00558904
-0.00253627
-0.0028392
-0.00124129
-0.000537492
-0.000571889
-0.000222402
-9.13294e-05
-9.16137e-05
-3.17631e-05
-1.2451e-05
-1.17761e-05
-3.68034e-06
-1.39511e-06
-1.22527e-06
-3.5458e-07
-1.32699e-07
-1.10514e-07
-4.29471e-08
-3.59159e-08
-1.019e-07
-1.54193e-07
-2.88871e-07
-1.12929e-06
-1.34004e-06
-4.21699e-06
-1.22965e-05
-3.48858e-05
-3.40937e-05
-3.61244e-05
-1.69242e-05
-1.30273e-05
-1.3131e-05
-4.59206e-06
-2.01229e-06
-4.18187e-06
-5.40939e-06
-7.19908e-06
-8.29337e-07
-4.94569e-07
-8.70146e-07
-4.94903e-07
-4.16386e-07
-5.69471e-07
-7.77215e-07
-8.86256e-08
-2.02243e-08
-4.91304e-09
-1.44936e-08
-9.2832e-09
-2.91768e-08
-5.81177e-08
-2.35389e-07
-2.31869e-06
-5.61303e-06
-6.97543e-06
-5.42995e-05
-4.6676e-05
-2.01875e-05
-1.08549e-05
-1.50782e-05
-2.82036e-05
-8.40152e-05
-9.39961e-05
-0.000236926
-0.000580398
-0.00129385
-0.00125154
-0.00126184
-0.000681598
-0.000573031
-0.000569225
-0.000237141
-0.000119096
-0.00023004
-0.00028417
-0.000320532
-5.29128e-05
-3.77618e-05
-5.77708e-05
-4.2457e-05
-3.75238e-05
-7.66804e-06
-4.99624e-06
-4.31931e-06
-3.16709e-06
-1.66287e-06
-4.71493e-06
-2.67904e-06
-9.55692e-07
-1.17187e-07
-2.98975e-08
-3.79065e-08
-2.34431e-08
-9.88508e-08
-4.74256e-08
-2.96542e-07
-3.29119e-07
-5.35118e-07
-7.02646e-07
-1.69989e-06
-1.7164e-06
-4.88893e-06
-2.24313e-06
-4.74839e-06
-6.11555e-06
-1.40024e-05
-1.40496e-05
-3.73329e-05
-1.8102e-05
-3.67853e-05
-4.63326e-05
-9.87212e-05
-9.87359e-05
-0.000239601
-0.000123267
-0.000238633
-0.000291873
-0.000576059
-0.000575586
-0.00125626
-0.000688926
-0.00126089
-0.00148635
-0.00270846
-0.00270984
-0.00523221
-0.00307735
-0.00528325
-0.00594643
-0.00993979
-0.00998219
-0.0168055
-0.0106241
-0.0170121
-0.0179494
-0.0275677
-0.0277825
-0.0357232
-0.0290158
-0.0358235
-0.038757
-0.0484358
-0.0469451
-0.0387742
-0.0484161
-0.0267456
-0.0316593
-0.0195167
-0.018405
-0.0186886
-0.0174086
-0.0186718
-0.0215091
-0.0217635
-0.0137429
-0.00713591
-0.0072954
-0.00180405
-0.00168852
-0.000836491
-0.000313448
-0.000348504
-0.000350298
-5.62612e-05
-7.57507e-06
-9.03719e-07
-1.10465e-07
-2.85753e-08
-7.28017e-09
-1.72422e-08
-1.40604e-08
-3.50017e-08
-4.27008e-08
-1.95028e-08
-2.0645e-08
-3.06226e-08
-1.99048e-08
-2.78062e-08
-1.81167e-08
-1.30314e-08
-2.26078e-08
-1.56581e-08
-2.80298e-08
-1.47471e-08
-2.02752e-08
-4.67074e-08
-4.56116e-08
-5.01025e-08
-5.00292e-08
-4.54792e-08
-4.55082e-08
-4.13163e-08
-1.37579e-07
-4.99759e-08
-4.54387e-08
-4.55586e-08
-1.37588e-07
-5.01234e-08
-5.16454e-08
-1.81542e-07
-1.6593e-07
-1.1719e-07
-1.08268e-07
-7.77952e-08
-9.78834e-07
-8.11647e-06
-5.74755e-05
-0.000338237
-0.0016149
-0.00156269
-0.0012851
-0.00179698
-0.00149404
-0.00137126
-0.00113464
-0.00259637
-0.00287318
-0.00551868
-0.0112041
-0.0116024
-0.0100363
-0.00578548
-0.00516793
-0.00312739
-0.00387892
-0.00377974
-0.00176559
-0.00696005
-0.0207107
-0.045433
-0.0463861
-0.0484855
-0.0327012
-0.0271643
-0.031616
-0.0409599
-0.0402874
-0.0500976
-0.0813393
-0.0729298
-0.0627364
-0.065654
-0.0384974
-0.0512301
-0.0532692
-0.0659338
-0.0389289
-0.0521521
-0.0531765
-0.0662034
-0.0391558
-0.0515812
-0.0539151
-0.0663832
-0.040639
-0.0517136
-0.0584803
-0.0837213
-0.074869
-0.0734213
-0.0945657
-0.0945233
-0.0719507
-0.0495393
-0.0663
-0.0515932
-0.0404365
-0.0480957
-0.0595934
-0.0511381
-0.0624772
-0.0746175
-0.0448997
-0.0415409
-0.0380355
-0.0396033
-0.0446854
-0.0292293
-0.0178145
-0.0177106
-0.0102392
-0.00577495
-0.00518902
-0.0026903
-0.00141109
-0.00118929
-0.000552736
-0.000271632
-0.000216569
-9.0276e-05
-4.15921e-05
-3.17298e-05
-1.18936e-05
-5.16389e-06
-3.78578e-06
-1.28435e-06
-5.1808e-07
-3.77815e-07
-1.18578e-07
-4.64914e-08
-3.66888e-08
-1.13925e-08
-8.24668e-09
-1.56009e-08
-4.36199e-08
-1.6544e-07
-4.80882e-07
-2.10189e-07
-1.76027e-07
-4.63443e-08
-2.54321e-08
-1.87069e-08
-7.82077e-09
-2.01789e-08
-2.12533e-08
-3.19127e-08
-4.48821e-08
-3.44481e-08
-1.28215e-07
-1.00893e-06
-8.17888e-06
-7.98045e-06
-5.87295e-05
-0.000361884
-0.000358135
-0.000276879
-0.000250591
-0.000201319
-0.000525424
-0.0006599
-0.000111577
-0.00014445
-0.00014453
-9.54881e-05
-9.53108e-05
-4.54323e-05
-3.6204e-05
-9.74254e-05
-0.000122171
-0.000236395
-0.000571821
-0.000685949
-0.00125464
-0.0026971
-0.00307001
-0.00526015
-0.00991473
-0.0106017
-0.0168945
-0.0126747
-0.0131708
-0.0324583
-0.0321203
-0.0206929
-0.0068872
-0.00175385
-0.000351821
-5.73747e-05
-7.87898e-06
-9.6168e-07
-1.21001e-07
-3.24053e-08
-8.49073e-09
-2.04936e-08
-4.26628e-08
-2.89374e-08
-1.13508e-07
-9.30847e-07
-7.78173e-06
-5.72421e-05
-0.000352067
-0.0017561
-0.00690458
-0.0207175
-0.0462335
-0.0456926
-0.048177
-0.103021
-0.0726362
-0.0695675
-0.0531766
-0.0661466
-0.0391714
-0.03927
-0.041867
-0.0668078
-0.0396323
-0.0402336
-0.0410304
-0.0671304
-0.039826
-0.0404304
-0.0409423
-0.0673852
-0.0415898
-0.0423492
-0.0480344
-0.0872595
-0.0755361
-0.0735847
-0.0739405
-0.0732441
-0.0526896
-0.0460543
-0.048386
-0.0870016
-0.0476558
-0.053261
-0.0660363
-0.0474485
-0.0394269
-0.0463079
-0.0619645
-0.0502782
-0.0612126
-0.0612845
-0.051458
-0.0623549
-0.0470125
-0.0395753
-0.0474064
-0.0402218
-0.0400219
-0.0403559
-0.0399275
-0.0395522
-0.0448285
-0.0487241
-0.0661969
-0.0600361
-0.051937
-0.0641956
-0.056763
-0.0520361
-0.0789087
-0.0405696
-0.0467313
-0.0347623
-0.0352301
-0.0243464
-0.0156033
-0.0148031
-0.00872491
-0.00517916
-0.00449537
-0.00237743
-0.00125236
-0.00105998
-0.00049487
-0.000245497
-0.000192572
-8.23021e-05
-3.61062e-05
-2.80708e-05
-1.08237e-05
-4.47937e-06
-3.24852e-06
-1.17376e-06
-4.32056e-07
-3.08387e-07
-1.07698e-07
-3.85622e-08
-2.74956e-08
-9.7653e-09
-1.50291e-08
-1.45542e-08
-5.13412e-09
-7.91833e-09
-9.84809e-09
-7.51215e-09
-8.19235e-09
-1.00079e-08
-1.13203e-08
-1.15214e-08
-1.29474e-08
-1.36111e-08
-1.30286e-08
-1.33292e-08
-1.27768e-08
-1.1139e-08
-7.58927e-09
-2.00645e-08
-3.15654e-08
-5.33457e-08
-8.40179e-08
-1.93867e-07
-2.46472e-07
-5.56997e-07
-5.36179e-07
-7.03551e-07
-1.60034e-06
-1.99327e-06
-4.6893e-06
-4.48651e-06
-4.72978e-06
-1.37651e-05
-1.23999e-05
-3.59143e-05
-3.70453e-05
-9.97895e-05
-8.85895e-05
-0.000237198
-0.000236476
-0.000590622
-0.000512621
-0.00126241
-0.00120353
-0.00278344
-0.0023315
-0.00530982
-0.00479278
-0.0102578
-0.00825701
-0.0173254
-0.0146652
-0.0286523
-0.0221722
-0.0260842
-0.0270218
-0.0264302
-0.0172671
-0.0167185
-0.00994968
-0.00976444
-0.00951335
-0.00562931
-0.00515983
-0.00283041
-0.00263301
-0.00259524
-0.00140768
-0.00122766
-0.0006247
-0.00055265
-0.000552389
-0.000274844
-0.000229933
-0.000107861
-9.15842e-05
-9.37524e-05
-4.28134e-05
-3.44758e-05
-1.50285e-05
-1.2308e-05
-1.30035e-05
-5.45342e-06
-4.25189e-06
-1.69759e-06
-1.37075e-06
-1.52284e-06
-5.94167e-07
-4.45712e-07
-1.61471e-07
-1.39032e-07
-1.60251e-07
-6.19664e-08
-3.58013e-08
-1.32708e-08
-1.1507e-08
-1.55867e-08
-8.26336e-09
-1.14697e-08
-3.63924e-08
-4.59504e-08
-1.01294e-07
-2.45172e-08
-3.85652e-08
-4.43035e-08
-2.10356e-08
-3.16707e-08
-5.31416e-08
-5.22177e-08
-7.80903e-08
-1.74651e-07
-2.09342e-07
-4.77924e-07
-5.06569e-07
-1.59009e-06
-1.41892e-06
-2.69054e-06
-3.01619e-07
-3.29425e-07
-1.89526e-07
-1.08833e-07
-4.13209e-08
-3.13962e-08
-1.10307e-07
-3.42029e-08
-2.03746e-08
-2.81759e-08
-2.03871e-08
-1.82163e-08
-2.01047e-08
-1.44028e-08
-4.41842e-08
-1.15329e-07
-8.14957e-08
-1.01558e-06
-9.68756e-07
-6.79455e-07
-1.54359e-06
-1.50464e-06
-5.79341e-07
-2.51735e-06
-2.79401e-07
-3.18278e-07
-1.84441e-07
-2.40405e-07
-5.21179e-07
-1.65488e-06
-2.1958e-06
-4.64491e-06
-1.37198e-05
-1.78296e-05
-2.41773e-05
-8.0509e-06
-5.94522e-06
-5.72007e-05
-0.000337659
-0.000288852
-0.00033849
-5.79597e-05
-8.27744e-06
-6.15074e-06
-8.04065e-06
-9.70964e-07
-6.90613e-07
-5.14041e-07
-1.583e-06
-1.57869e-06
-4.46913e-06
-1.37277e-05
-3.59755e-05
-1.2408e-05
-1.18407e-05
-4.71857e-06
-3.76421e-06
-1.41807e-06
-1.27504e-06
-5.04283e-07
-3.74624e-07
-5.15129e-07
-4.3952e-07
-1.18213e-06
-1.70675e-06
-3.28065e-06
-4.26828e-06
-5.48909e-06
-1.30708e-05
-1.68896e-05
-3.38981e-05
-3.60437e-05
-4.53134e-05
-9.66096e-05
-0.000120739
-0.000232264
-0.000234953
-0.000284595
-0.00055782
-0.000668539
-0.00121596
-0.0012147
-0.00142104
-0.00260062
-0.00285889
-0.00503328
-0.009522
-0.00995698
-0.016248
-0.0261728
-0.0260895
-0.0295985
-0.0187602
-0.00634215
-0.00168381
-0.000357753
-6.21976e-05
-9.04531e-06
-1.13816e-06
-1.5252e-07
-4.23256e-08
-4.14035e-08
-4.48046e-08
-4.50269e-08
-3.42287e-08
-4.49102e-08
-1.17063e-07
-1.08483e-07
-4.09986e-08
-3.12358e-08
-2.03473e-08
-2.81367e-08
-1.31389e-08
-1.02299e-08
-1.30261e-08
-4.07506e-08
-1.07441e-07
-7.6227e-08
-1.71812e-07
-2.06646e-07
-3.21615e-07
-3.64433e-07
-1.65095e-07
-4.64268e-08
-4.53984e-08
-4.52448e-08
-1.37369e-07
-4.12184e-08
-4.10693e-08
-1.1001e-07
-3.66789e-07
-9.75606e-07
-8.34095e-07
-8.3803e-08
-2.97048e-08
-1.39796e-07
-6.23955e-08
-1.6105e-07
-2.1394e-07
-4.5511e-07
-5.17236e-07
-6.96823e-07
-1.68501e-06
-2.22475e-06
-4.85494e-06
-6.23407e-06
-1.39129e-05
-1.78993e-05
-3.68563e-05
-3.63227e-05
-4.55764e-05
-9.5342e-05
-0.000113771
-0.000232757
-0.000556272
-0.000639253
-0.00121457
-0.00157996
-0.000331935
-5.67304e-05
-8.06379e-06
-9.7873e-07
-3.67417e-07
-1.6584e-07
-4.66145e-08
-4.24147e-07
-1.19753e-06
-3.64147e-07
-3.20691e-07
-3.67143e-07
-4.24348e-07
-1.20272e-06
-1.02937e-06
-7.40617e-07
-8.35916e-06
-6.29224e-06
-5.8305e-05
-4.68394e-05
-5.89593e-05
-0.000358622
-0.00177837
-0.00181146
-0.00712553
-0.00708249
-0.00622165
-0.0204631
-0.0416016
-0.0398506
-0.0612178
-0.0503622
-0.105399
-0.0713171
-0.0705897
-0.0589334
-0.0808135
-0.0773176
-0.0783944
-0.0769133
-0.104907
-0.0706146
-0.0694985
-0.053353
-0.0658619
-0.0389932
-0.0400245
-0.0425668
-0.0664866
-0.0394423
-0.0411142
-0.0418453
-0.0668172
-0.0396551
-0.0411969
-0.0418494
-0.0670593
-0.0415041
-0.042824
-0.0532611
-0.0294727
-0.0179578
-0.017844
-0.0168693
-0.0179538
-0.0102773
-0.0107573
-0.00878096
-0.0105405
-0.0102404
-0.00573803
-0.00955498
-0.0165979
-0.0176525
-0.0262485
-0.0291577
-0.0168279
-0.0162621
-0.0166699
-0.025589
-0.0281018
-0.0402126
-0.0412839
-0.0400877
-0.0262192
-0.0171531
-0.0258165
-0.0265788
-0.0258924
-0.0170399
-0.0257761
-0.0266129
-0.025957
-0.0171259
-0.0259167
-0.0407801
-0.0400236
-0.0398571
-0.0418021
-0.0509293
-0.0670774
-0.0529026
-0.0748044
-0.0755171
-0.0724573
-0.0532822
-0.0477131
-0.0480862
-0.0866891
-0.0487111
-0.0548756
-0.0852076
-0.0769783
-0.0734217
-0.0530432
-0.0481972
-0.0541026
-0.0428996
-0.042363
-0.0526654
-0.0286477
-0.0186829
-0.0187034
-0.00635118
-0.0016897
-0.000359155
-6.24025e-05
-9.06505e-06
-1.13915e-06
-1.52506e-07
-4.23225e-08
-4.13819e-08
-4.55944e-08
-3.53574e-08
-1.82169e-08
-1.33138e-08
-1.14751e-08
-1.13284e-08
-1.62358e-08
-3.10086e-08
-2.5144e-08
-3.10941e-08
-1.60043e-08
-9.73185e-09
-7.74525e-09
-7.30703e-09
-2.98852e-08
-9.93649e-09
-7.88497e-09
-1.01546e-08
-2.29124e-08
-1.28961e-08
-4.08365e-08
-3.10806e-08
-3.38896e-08
-1.09653e-07
-4.48429e-08
-4.48928e-08
-3.38902e-08
-3.11565e-08
-2.00917e-08
-1.30586e-08
-1.2742e-08
-1.29923e-08
-4.44968e-08
-1.16242e-07
-1.08141e-07
-8.43609e-08
-4.97208e-08
-1.03377e-07
-2.47341e-08
-3.9199e-08
-3.0498e-08
-1.19459e-07
-9.70166e-07
-8.01765e-06
-5.84029e-05
-0.000356605
-0.00176994
-0.00693704
-0.00696208
-0.0208601
-0.021134
-0.0459629
-0.0488271
-0.047707
-0.0479223
-0.0673613
-0.054515
-0.0703451
-0.0725857
-0.102751
-0.0479874
-0.0479314
-0.0479788
-0.0491481
-0.0491404
-0.0498143
-0.0665288
-0.0361961
-0.037354
-0.0379665
-0.0476763
-0.0634835
-0.0393101
-0.0193224
-0.0207761
-0.0462786
-0.045964
-0.0320984
-0.0329188
-0.0135289
-0.0038595
-0.000848788
-0.000150229
-2.18517e-05
-2.20002e-05
-2.80575e-06
-2.81814e-06
-3.32046e-07
-3.05735e-07
-8.99534e-07
-7.74086e-06
-5.70612e-05
-0.000347269
-0.00170787
-0.00661861
-0.0127517
-0.0125785
-0.0127333
-0.00368571
-0.000824168
-0.000147985
-0.00014721
-2.19854e-05
-2.17971e-05
-2.71997e-06
-1.61162e-06
-1.60079e-06
-4.51044e-06
-1.38587e-05
-3.61729e-05
-1.65953e-05
-1.35241e-05
-4.71591e-06
-2.00234e-06
-2.97338e-06
-9.81266e-07
-7.08671e-07
-5.25545e-07
-1.09005e-07
-4.12026e-08
-1.30507e-08
-7.88309e-08
-3.67723e-07
-3.23201e-07
-9.15439e-08
-4.03983e-08
-4.12152e-08
-2.81137e-08
-2.01733e-08
-2.24576e-08
-3.52357e-08
-4.12317e-08
-1.37462e-07
-3.52456e-08
-2.784e-08
-2.00399e-08
-2.27828e-08
-3.54176e-08
-1.8306e-08
-1.33067e-08
-1.48043e-08
-1.02945e-08
-1.2952e-08
-1.4384e-08
-2.81042e-08
-2.29683e-08
-4.04267e-08
-3.11548e-08
-2.51617e-08
-9.16365e-08
-3.11008e-08
-1.62658e-08
-3.23125e-07
-3.66116e-07
-1.65609e-07
-4.66598e-08
-4.24747e-07
-3.65982e-07
-9.73567e-07
-8.38443e-07
-5.11539e-07
-7.1994e-06
-4.76495e-06
-8.09948e-06
-6.12541e-06
-5.71352e-05
-4.60995e-05
-3.65425e-05
-9.65746e-05
-0.000100948
-0.000240041
-0.000601893
-0.00128795
-0.000651504
-0.000568266
-0.000236644
-0.000115091
-0.000150992
-5.23593e-05
-3.74073e-05
-0.000314203
-0.000240314
-0.000335438
-0.000288974
-0.000339463
-0.000291818
-0.00161081
-0.0014768
-0.00607919
-0.0061051
-0.00598325
-0.00531337
-0.00611712
-0.00353755
-0.000821262
-0.000152583
-2.32353e-05
-2.96855e-06
-3.2161e-06
-3.47812e-06
-9.39572e-06
-2.42922e-05
-2.53891e-05
-6.38915e-05
-0.000155036
-0.000157731
-6.37714e-05
-9.36569e-06
-3.19307e-06
-3.19211e-06
-3.47262e-06
-1.27097e-06
-9.71242e-06
-6.51299e-05
-0.000367345
-0.000364212
-0.00081628
-0.000812586
-0.00170126
-0.00346431
-0.00339634
-0.00636149
-0.0115518
-0.0118855
-0.017945
-0.0490146
-0.0398312
-0.0525414
-0.0295286
-0.0284394
-0.0471832
-0.0409207
-0.051486
-0.0674301
-0.0782474
-0.076729
-0.104073
-0.0702112
-0.0545958
-0.0513677
-0.0752741
-0.0762852
-0.0494727
-0.0550426
-0.068438
-0.0762538
-0.0718795
-0.0702681
-0.103477
-0.0770598
-0.0785038
-0.0782941
-0.0784909
-0.0785441
-0.0767818
-0.075457
-0.0686506
-0.0539294
-0.0663745
-0.0406378
-0.0392012
-0.0418748
-0.0670784
-0.041459
-0.0402173
-0.0409669
-0.0674334
-0.0415186
-0.0404348
-0.0408511
-0.0676253
-0.0426619
-0.0482639
-0.0870908
-0.0778942
-0.0727657
-0.0535481
-0.0476852
-0.0527087
-0.0286541
-0.0186823
-0.00634712
-0.00169325
-0.000362239
-6.35758e-05
-9.36032e-06
-1.20024e-06
-3.20082e-06
-2.96284e-06
-1.97848e-06
-4.64193e-06
-1.33633e-05
-1.64726e-05
-3.61741e-05
-9.5886e-05
-0.000100354
-0.000239356
-0.000599886
-0.00128648
-0.000521267
-0.000552214
-0.000239471
-0.00021622
-8.94268e-05
-9.00777e-05
-3.71834e-05
-3.163e-05
-4.15272e-05
-3.69333e-05
-8.27279e-05
-0.000108917
-0.000195316
-0.000231668
-0.000277167
-0.000556324
-0.000661053
-0.00120317
-0.00122001
-0.00142454
-0.00258575
-0.00296138
-0.00502998
-0.00560285
-0.00941471
-0.0102376
-0.0161858
-0.0162653
-0.0171359
-0.0260342
-0.0266403
-0.025887
-0.025873
-0.0170649
-0.016197
-0.0162314
-0.0258453
-0.0265709
-0.0285405
-0.0177653
-0.00600276
-0.00158565
-0.000332881
-5.67727e-05
-8.05064e-06
-7.17338e-06
-5.22385e-05
-5.68866e-05
-4.55789e-05
-0.000334714
-0.000287209
-0.000235301
-0.000566151
-0.000650556
-0.00124444
-0.00268482
-0.00287079
-0.00547215
-0.0107504
-0.0179638
-0.00878038
-0.0102468
-0.00502248
-0.00518877
-0.00241631
-0.00269041
-0.00123604
-0.00118853
-0.00141026
-0.00129278
-0.00243896
-0.00292209
-0.00472221
-0.00523777
-0.00573819
-0.00955564
-0.0102897
-0.0165825
-0.016229
-0.017151
-0.0261934
-0.0267044
-0.0262528
-0.0291388
-0.0176526
-0.0168244
-0.0162463
-0.0255716
-0.0280822
-0.0294136
-0.0194245
-0.0166538
-0.0178049
-0.0177135
-0.0292535
-0.0155684
-0.019285
-0.00659615
-0.0016985
-0.000344324
-5.63387e-05
-7.59787e-06
-8.76631e-07
-1.0021e-07
-2.41269e-08
-8.40789e-09
-1.14689e-08
-9.73104e-09
-1.32706e-08
-2.78011e-08
-3.59638e-08
-1.50407e-08
-5.11699e-09
-1.44668e-08
-2.55158e-08
-4.25212e-08
-4.6041e-08
-7.75662e-08
-1.89244e-07
-2.45706e-07
-5.56438e-07
-7.351e-07
-1.70819e-06
-2.23243e-06
-4.85535e-06
-4.73073e-06
-6.08032e-06
-1.34155e-05
-1.64887e-05
-3.62002e-05
-2.14767e-05
-2.16364e-05
-1.38501e-05
-2.79575e-06
-1.69246e-06
-9.92301e-07
-9.38635e-07
-1.15643e-07
-2.99588e-08
-3.69539e-08
-1.7908e-08
-2.145e-08
-3.13074e-08
-6.25454e-08
-3.91848e-08
-1.0851e-07
-1.624e-07
-4.47464e-07
-5.98744e-07
-1.53091e-06
-2.03542e-06
-4.22927e-06
-4.64581e-06
-6.02427e-06
-1.38063e-05
-1.78564e-05
-3.69034e-05
-4.61364e-05
-9.69164e-05
-0.000120836
-0.000234456
-0.000232921
-0.000283318
-0.000557583
-0.000765282
-0.000142278
-9.67361e-05
-5.69226e-05
-5.57837e-05
-7.71643e-06
-2.59395e-06
-1.57203e-06
-2.93319e-07
-1.71881e-07
-9.43352e-08
-2.51335e-07
-3.12542e-07
-6.04856e-07
-8.16095e-07
-2.40589e-06
-1.37918e-06
-5.76793e-06
-4.48442e-06
-1.09188e-05
-1.5074e-05
-3.46644e-05
-4.30823e-05
-9.43055e-05
-0.000117135
-0.000224866
-0.00023296
-0.000282986
-0.000557613
-0.000668814
-0.00121866
-0.00142105
-0.00258523
-0.00296012
-0.00502197
-0.00503597
-0.00561813
-0.0094199
-0.00598951
-0.00342628
-0.000806295
-0.000809293
-0.000362188
-6.35401e-05
-9.3501e-06
-1.19854e-06
-3.47633e-06
-3.21475e-06
-2.42397e-05
-2.31233e-05
-8.03993e-06
-5.67375e-05
-0.00033285
-0.000809679
-0.000813545
-0.000154531
-0.000157352
-2.53455e-05
-2.40855e-05
-3.19461e-06
-2.20679e-06
-1.68121e-06
-7.2261e-07
-1.68125e-06
-4.80935e-06
-6.15774e-06
-1.37435e-05
-1.37427e-05
-4.80889e-06
-4.67354e-06
-5.97976e-06
-1.36998e-05
-1.31419e-05
-4.62063e-06
-1.56309e-06
-6.89218e-07
-1.66637e-06
-5.28303e-07
-5.49168e-07
-5.49461e-07
-5.28368e-07
-6.89246e-07
-1.56159e-06
-1.66669e-06
-2.20721e-06
-4.67327e-06
-5.97682e-06
-1.3123e-05
-1.36916e-05
-1.77619e-05
-3.60068e-05
-4.50569e-05
-9.37506e-05
-9.60311e-05
-9.61034e-05
-9.6127e-05
-4.57774e-05
-3.66738e-05
-3.66821e-05
-1.7767e-05
-3.60308e-05
-4.51162e-05
-9.6146e-05
-9.40173e-05
-3.59247e-05
-1.68727e-05
-1.30355e-05
-1.23844e-05
-5.47444e-06
-4.22629e-06
-2.03128e-06
-1.52516e-06
-1.38229e-06
-5.96669e-07
-4.54352e-07
-5.13236e-07
-1.70475e-07
-7.64736e-08
-1.86483e-07
-2.43011e-07
-1.90304e-07
-8.21554e-08
-1.90304e-07
-2.43186e-07
-1.86737e-07
-7.64588e-08
-1.7045e-07
-5.13662e-07
-4.53117e-07
-2.1313e-07
-2.88005e-07
-1.12049e-07
-2.91714e-08
-7.39386e-09
-1.7712e-08
-1.97732e-08
-2.07533e-08
-2.06768e-08
-8.47588e-09
-3.25203e-08
-4.34537e-08
-1.97709e-08
-1.75671e-08
-7.29036e-09
-1.08127e-08
-1.05149e-08
-1.24813e-08
-2.00145e-08
-3.0863e-08
-5.10353e-08
-5.23882e-08
-5.24594e-08
-5.09803e-08
-4.57131e-08
-4.22355e-08
-2.54357e-08
-1.60579e-08
-1.06138e-08
-1.11962e-08
-1.2537e-08
-4.09389e-08
-1.08266e-07
-9.73599e-07
-1.01847e-06
-8.26281e-06
-5.75702e-05
-0.000153494
-0.000120438
-0.000234207
-0.000283399
-0.000554856
-0.000555303
-0.000556163
-0.000552458
-0.000282383
-0.000232136
-0.000232582
-0.000117127
-9.41435e-05
-9.24757e-05
-4.30075e-05
-3.38972e-05
-3.46706e-05
-1.51118e-05
-1.09461e-05
-2.82311e-05
-3.69203e-05
-8.28664e-05
-0.000195517
-0.000245553
-0.00050499
-0.00108123
-0.00129355
-0.00244213
-0.0047278
-0.00534156
-0.00917823
-0.0118375
-0.00636377
-0.00346589
-0.00156867
-0.000783707
-0.000302
-0.00014022
-4.62738e-05
-2.01927e-05
-5.75484e-06
-4.48127e-06
-3.28551e-06
-4.26942e-06
-1.71251e-06
-1.18581e-06
-3.13157e-07
-4.39603e-07
-6.02717e-07
-2.39659e-06
-2.50001e-07
-1.09054e-07
-1.63088e-07
-1.40277e-07
-6.21991e-08
-1.60325e-07
-2.13174e-07
-2.89364e-07
-9.29101e-08
-2.11487e-08
-5.04636e-09
-1.44296e-08
-1.51069e-08
-9.69255e-09
-2.7846e-08
-3.9115e-08
-6.23245e-08
-3.10796e-08
-1.3265e-08
-3.60115e-08
-4.23993e-08
-4.56433e-08
-2.53716e-08
-3.62739e-08
-2.91348e-08
-1.12335e-07
-9.17748e-07
-8.06165e-07
-7.0656e-06
-5.34793e-05
-0.000332577
-0.00027691
-0.000555834
-0.000560418
-0.00023172
-0.000224973
-0.000140182
-2.06763e-05
-2.57096e-06
-2.76426e-06
-7.59216e-06
-5.51556e-05
-0.000333504
-0.000772345
-0.000661406
-0.00121931
-0.00142353
-0.00258229
-0.00259816
-0.00261504
-0.00270546
-0.00142511
-0.0012041
-0.00124366
-0.000634719
-0.000522162
-0.000821901
-0.000816135
-0.00363592
-0.00367182
-0.00268873
-0.00287549
-0.00547248
-0.00502625
-0.00581153
-0.00152105
-0.00123824
-0.00160122
-0.00146706
-0.00124783
-0.00607011
-0.00587006
-0.00522448
-0.00294035
-0.00348549
-0.00158596
-0.00600452
-0.0117592
-0.0115522
-0.00345645
-0.00339222
-0.000810736
-0.000807548
-0.00169341
-0.00170393
-0.0017009
-0.000363911
-0.000154684
-0.000154163
-2.41293e-05
-2.53279e-05
-2.41126e-05
-2.30693e-05
-0.000150784
-0.000114647
-0.000146635
-2.15033e-05
-2.15746e-05
-2.15513e-05
-2.07113e-05
-2.72768e-06
-2.73676e-06
-3.18959e-07
-2.96265e-07
-3.77039e-08
-2.66086e-06
-0.000146179
-0.000145693
-0.000812433
-0.00081884
-0.000827355
-0.00366792
-0.00363159
-0.00367178
-0.000819606
-0.00521811
-0.00994305
-0.0102832
-0.016853
-0.0127698
-0.012585
-0.0320232
-0.0319978
-0.0393092
-0.0635901
-0.0945702
-0.0945304
-0.0495347
-0.0584804
-0.0837217
-0.0748718
-0.0527
-0.073207
-0.0741365
-0.0533538
-0.0480565
-0.087433
-0.0761157
-0.0734557
-0.099569
-0.0838236
-0.0838761
-0.078443
-0.0675762
-0.0411203
-0.0517154
-0.028538
-0.0186338
-0.00636147
-0.00346567
-0.000815914
-0.000812826
-0.0016091
-0.00159998
-0.00146308
-0.00606926
-0.00586546
-0.00580932
-0.00151991
-0.00031377
-0.000559794
-0.00124332
-0.00142555
-0.00261582
-0.00296334
-0.00508144
-0.00505358
-0.00563796
-0.00940053
-0.0102286
-0.00940012
-0.00598244
-0.00158452
-0.000807453
-0.0008091
-0.00348435
-0.00294029
-0.00345596
-0.00339195
-0.000810589
-0.000157291
-0.000153552
-5.77192e-05
-8.30142e-06
-1.02508e-06
-1.70128e-06
-2.79928e-06
-4.70091e-06
-3.31182e-07
-5.33164e-07
-1.93241e-07
-4.46735e-08
-5.1754e-08
-2.11876e-08
-8.81048e-09
-3.38389e-08
-1.25734e-07
-2.16263e-05
-2.07816e-05
-1.31882e-05
-7.12718e-06
-2.0243e-05
-2.82037e-05
-4.63244e-05
-5.37919e-05
-0.000140399
-9.23608e-05
-0.000302015
-0.000245536
-0.000504199
-0.000633617
-0.00107988
-0.000783868
-0.00156745
-0.00165895
-0.000333782
-0.00014047
-9.41917e-05
-0.000142289
-9.65442e-05
-0.000336039
-0.000772232
-0.000552822
-0.000766486
-0.00121388
-0.0016319
-0.00336194
-0.00259781
-0.00346429
-0.00270265
-0.00635623
-0.00533654
-0.0091688
-0.0105299
-0.0102312
-0.0118289
-0.00645642
-0.0190736
-0.0392741
-0.0409493
-0.0475647
-0.0543981
-0.0478913
-0.0279809
-0.011282
-0.00953277
-0.00622515
-0.0182686
-0.0379527
-0.0543176
-0.0483933
-0.0272658
-0.010895
-0.00328161
-0.00503485
-0.00258106
-0.00162883
-0.000338546
-0.00618227
-0.0181685
-0.0378599
-0.0543362
-0.048519
-0.0273163
-0.010885
-0.00327395
-0.00258584
-0.00335886
-0.000780026
-0.000143686
-5.5669e-05
-7.5993e-06
-8.82628e-07
-5.09809e-07
-5.17574e-06
-0.000333793
-0.00160118
-0.00602856
-0.0112235
-0.0279812
-0.0383539
-0.0558977
-0.0486576
-0.0431761
-0.0480676
-0.0470536
-0.0380107
-0.0183019
-0.0180632
-0.00614217
-0.00161091
-0.000331798
-5.49706e-05
-7.56945e-06
-9.14849e-07
-9.63079e-07
-1.21059e-07
-3.25027e-07
-3.24787e-07
-4.34222e-08
-3.095e-08
-3.61455e-08
-2.10915e-08
-9.18884e-08
-7.98261e-07
-2.56141e-06
-2.02909e-06
-4.21422e-06
-4.61964e-06
-8.03182e-06
-3.19357e-06
-3.47232e-06
-4.24665e-07
-3.20446e-06
-2.96837e-06
-8.36163e-07
-8.41876e-08
-2.99804e-08
-1.64358e-07
-1.37737e-07
-7.17143e-06
-2.30475e-05
-2.40642e-05
-2.5301e-05
-2.41129e-05
-0.000153395
-0.00015703
-0.000153301
-5.66211e-05
-0.000331914
-0.000334529
-0.00158429
-0.00343054
-0.00296162
-0.00257973
-0.00141814
-0.00257563
-0.00503017
-0.00559566
-0.00937965
-0.00940195
-0.00502488
-0.00504195
-0.00563756
-0.00939212
-0.00953838
-0.00505294
-0.00296589
-0.00508594
-0.00523927
-0.00292636
-0.00241805
-0.00336708
-0.00165565
-0.00645037
-0.0190631
-0.0194427
-0.0294247
-0.040952
-0.0475886
-0.0392598
-0.0544538
-0.0479109
-0.02803
-0.0113066
-0.00620393
-0.0016238
-0.00328652
-0.000766417
-0.00121481
-0.00121689
-0.001217
-0.00121144
-0.00141867
-0.00257839
-0.00258017
-0.00295875
-0.00502436
-0.00561786
-0.00944494
-0.00940208
-0.0102313
-0.0162032
-0.016287
-0.0162438
-0.0102392
-0.0117016
-0.0114966
-0.006348
-0.00635053
-0.0112161
-0.0186343
-0.0179056
-0.0178711
-0.0491372
-0.038382
-0.0392521
-0.0515242
-0.0673952