/*--------------------------------*- C++ -*----------------------------------*\
| =========                 |                                                 |
| \\      /  F ield         | OpenFOAM: The Open Source CFD Toolbox           |
|  \\    /   O peration     | Version:  2306                                  |
|   \\  /    A nd           | Website:  www.openfoam.com                      |
|    \\/     M anipulation  |                                                 |
\*---------------------------------------------------------------------------*/
FoamFile
{
    version     2.0;
    format      ascii;
    arch        "LSB;label=32;scalar=64";
    class       volScalarField;
    location    "0.3";
    object      gradTy;
}
// * * * * * * * * * * * * * * * * * * * * * * * * * * * * * * * * * * * * * //

dimensions      [0 -1 0 1 0 0 0];

internalField   nonuniform List<scalar> 
5322
(
0.625656
0.0640766
0.00373143
-0.0149261
-0.00352804
0.00414742
0.00715074
0.0093075
0.0137426
0.0191492
0.00158885
-0.116819
-0.129086
-0.115933
-0.100843
0.218885
0.292542
-0.00062915
0.203519
-0.244696
0.235557
-0.244777
0.244284
-0.257492
0.262263
-0.26636
0.272603
-0.289124
0.296062
-0.304392
0.314541
-0.327507
0.347277
-0.309873
0.303323
-0.158075
0.312969
0.388897
0.195068
0.213891
0.287146
0.240298
0.251648
0.26815
0.255695
0.256507
0.259773
0.277578
0.260711
0.245946
0.309202
0.145752
0.165679
-0.534274
-0.0280681
-0.308411
0.164633
-0.403558
-0.021723
-0.350719
0.16713
-0.396779
-0.0193705
-0.348127
0.167827
-0.410921
-0.0254239
-0.337022
0.169676
-0.454106
0.0152476
0.38434
0.213847
0.299072
0.223105
0.282862
0.235818
0.281749
0.239383
0.332568
0.0285892
0.117111
0.175139
0.287346
-0.0225785
-0.114897
0.0353993
0.068805
0.133855
0.0168346
0.0354042
0.00650749
0.000986236
0.00108423
0.397532
-0.216998
0.00670655
0.218979
0.00619066
-0.00734363
0.0327965
0.00622792
0.232526
-0.387275
0.346874
0.00567461
-0.00693955
-0.00114388
-5.85238e-05
0.000508908
0.00052867
0.00053732
0.000931
0.00167265
-0.00264422
0.000741252
0.0831346
-0.034047
-0.0118334
-0.0639939
0.0787817
-0.0435979
-0.085106
-0.116527
-0.131643
-0.00530674
0.0965647
-0.0728224
0.00683708
0.0795586
-0.0792323
0.00334371
0.0827012
-0.0847992
-0.00268083
0.0772278
-0.0926479
-0.00737511
-0.0214936
0.141868
0.117478
-0.0772185
0.0511524
0.0397553
-0.081539
0.00889441
-0.0797934
0.0625741
0.0643677
-0.0709852
-0.00106577
-0.0661597
0.0664278
0.0717872
-0.0644315
-0.000215244
-0.0615253
0.078182
-0.00502195
-0.0037632
0.246321
-0.192962
0.215137
-0.231172
0.00795988
-0.146917
-0.00284147
-0.00071821
-0.0270853
0.0703786
-0.140789
0.1401
-0.23614
0.000554283
0.241232
-0.240312
0.250193
-0.258628
0.00109317
0.25483
-0.265116
0.274975
-0.279216
0.00106122
0.273076
-0.281004
0.290116
-0.295934
0.000725557
0.289166
-0.297765
0.30688
-0.314318
0.000693682
0.307293
-0.317801
0.327501
-0.335267
0.000947299
0.327874
-0.341347
0.351932
-0.357629
0.00127835
0.349192
-0.366476
0.377695
-0.374971
0.00168189
0.364334
-0.388113
0.391382
-0.217168
-0.00112277
-0.0182207
0.00812777
-0.0067168
-0.000375217
0.00240141
0.00334284
8.62131e-05
0.398265
-0.21622
0.00160276
0.258297
-0.0363892
-0.0122073
0.0102364
-0.0132465
0.218119
-0.392207
0.00232834
0.0017523
0.00490617
0.00303055
0.00152446
0.000637188
4.83253e-05
-0.000732548
-0.00179657
0.00260834
-0.000965823
-0.0668984
-0.0712753
-0.0713153
-0.0670453
0.0138349
0.023493
0.01475
-0.0899563
0.0469504
-0.0951764
0.0235404
0.0138623
0.0147842
-0.0940589
0.0326381
0.0899711
0.0579782
-0.0899228
0.0470499
0.097674
0.13646
0.144207
-0.237349
-0.236821
-0.25485
0.186556
-0.233807
0.218131
-0.237696
0.235197
-0.248002
0.250697
-0.263508
0.266878
-0.284663
0.2838
-0.311556
0.300957
-0.340764
0.315544
-0.0663114
0.161459
-0.044034
-0.00437596
0.273197
-0.313763
0.00648041
0.272884
-0.29431
0.00424027
0.263151
-0.270466
0.00306475
0.250048
-0.249951
0.00222621
0.235564
-0.234682
0.00117175
0.219929
-0.22456
-0.000339611
0.200444
-0.22076
0.0060788
0.163491
-0.0150851
0.163354
-0.221095
0.00608877
0.187521
-0.253398
0.101431
0.16737
0.124992
0.117058
-0.223509
0.147996
-0.212541
0.191284
-0.215404
0.211513
-0.224966
0.226939
-0.239825
0.241485
-0.260752
0.256157
-0.285718
0.270112
-0.302908
0.275651
-0.0419082
0.118048
-0.122012
0.0015369
0.378739
-0.443367
0.0111201
0.388555
-0.404561
0.00658224
0.369009
-0.364798
0.00385156
0.345448
-0.33615
0.00243667
0.325096
-0.316098
0.00112021
0.308025
-0.301861
6.8961e-05
0.290664
-0.294522
0.00746338
0.251414
-0.287847
0.100803
0.233784
0.20761
-0.104237
0.199299
-0.0472045
0.0370335
0.238161
-0.20624
0.193944
-0.184763
0.296026
-0.260688
-0.00208476
-0.288408
0.246054
-0.249623
0.00727191
0.262674
0.0116791
0.00492136
-0.0740697
0.00724719
-0.00594151
0.00389279
-0.00144475
-0.000524162
0.24027
-0.240728
0.242965
-0.255448
6.51201e-05
0.26773
-0.27434
0.283817
-0.290535
0.000281725
0.301067
-0.308431
0.321921
-0.328522
0.000405613
0.346405
-0.349216
0.371712
-0.364431
-0.000586707
0.000547654
0.00089259
0.0028114
0.00154841
0.00117104
0.34962
-0.348792
0.00178634
0.41292
-0.422606
0.378341
-0.36082
0.0036795
0.438831
-0.432058
0.275958
-0.196627
-0.328153
-0.0232427
-0.0035626
-0.118376
-0.0308768
0.00779884
0.20365
0.261569
0.0197767
-0.405736
0.299318
0.0021105
-0.319763
0.284349
-0.00145627
-0.281369
0.269951
-0.000639865
-0.25583
0.254145
-0.00237456
-0.242807
0.251794
-0.00469581
-0.222394
0.248378
-0.0157472
-0.193356
0.0619571
0.0935237
-0.11683
0.000528989
0.191966
-0.16686
0.195272
-0.194561
0.201952
-0.204808
0.333166
-0.29206
-0.000756807
-0.326105
0.284208
-0.277062
-0.00169579
0.315222
0.00012686
-0.00109759
-0.000697721
-0.0174601
0.00150521
0.0233099
0.0258845
0.0103849
0.00508791
0.0152912
0.0106495
-0.0137322
0.222323
0.0712458
0.0153695
0.0533362
0.0107854
0.00236387
0.00169483
0.00149578
0.00136598
-0.000287028
-0.000968416
-0.183395
-0.000689489
0.190402
-0.19515
0.212176
-0.217212
0.227549
-0.231785
0.381063
-0.329208
0.000535449
-0.366451
0.323296
-0.309497
-0.000127829
0.354504
0.000953808
0.00013049
-0.000587623
-0.00137829
-0.00601945
7.49361e-05
9.38274e-05
-0.00348446
0.00644864
0.00461354
0.185851
0.000243182
-0.0082206
0.0012947
-0.0151992
0.000122827
0.117582
0.224103
0.411572
0.0422879
-0.00609176
-0.00167848
-0.0102509
-0.232343
0.000347908
0.219749
0.20005
-0.224636
-0.000324087
-0.236849
0.000604598
0.236637
0.219601
-0.234513
0.00120283
-0.248044
4.63447e-05
0.251369
0.235619
-0.249667
0.00228088
-0.264614
0.00265474
0.266194
0.250941
-0.270346
0.00317935
-0.287372
0.0115394
0.279784
0.266117
-0.295438
0.00444688
-0.315586
0.0335523
0.288582
0.28065
-0.319473
0.00680197
-0.34083
0.0840237
0.289213
0.289187
-0.0523205
-0.00415415
-0.0611794
0.804391
-0.369179
-0.378305
0.596141
0.155689
0.0617752
-0.530177
-0.113252
-0.0670095
0.260573
-0.272305
-0.00488438
0.0071656
-0.0379994
-0.0449504
-0.00613327
0.012036
0.00696209
0.000838641
-0.00533186
6.36352e-06
0.00308872
0.000893664
0.000293236
-0.000310871
-0.00149881
-0.00298886
-0.0104283
-0.00555482
0.144651
-0.144706
0.00171991
0.000939363
-0.146993
0.144832
-0.000341545
0.000600937
-0.00065062
-0.0109644
-0.00695171
0.0262663
0.00279596
0.0302255
-0.010718
-0.0131405
3.49932e-07
0.048481
-0.0563817
0.0566315
-0.0482749
-0.0488788
-0.0417456
0.00157433
0.0561658
0.0505074
-0.050395
-0.00149429
-0.0565687
5.60995e-06
2.50343e-05
0.00353006
0.00976874
0.00871263
-0.0204012
-0.00013992
-0.000776152
-0.00051844
0.000624664
0.00375696
0.00163214
0.0194701
-0.0221476
-0.0057606
0.00749204
0.225756
-0.215416
0.247042
-0.25184
0.267505
-0.00766996
-0.240074
0.00302544
0.255981
-0.00220518
-0.0142369
0.00270841
0.00190995
0.00370359
0.00434264
-0.00334409
-0.0447696
0.153458
-0.0699799
-0.283308
-0.0381118
-0.0392447
-0.587114
-0.163171
0.0209202
-0.240177
0.176279
0.00830041
0.00929452
0.213297
0.178782
0.0243921
-0.0202226
0.236429
0.212543
0.0261735
-0.0242748
0.214717
0.242231
0.0244063
-0.0554357
0.178392
0.246764
-0.0863063
0.132821
-0.115693
0.123627
-0.487174
-0.264149
0.0460235
-0.120334
0.251954
-0.0154129
-0.411682
0.222963
-0.00439045
-0.26432
-0.261842
-0.379224
0.149889
-0.20548
-0.133466
0.22408
-0.444093
-0.0541749
0.304058
-0.357953
-0.013615
0.302922
-0.305615
-0.00331389
0.285016
-0.275858
-0.0020128
0.266259
-0.25731
-0.0013873
0.251474
-0.243905
0.00152557
0.24122
-0.232857
0.0128205
0.240342
-0.203241
0.0563821
0.196192
-0.108765
0.206676
0.233589
-0.290763
0.250607
-0.297323
0.00772927
0.147521
-0.22362
0.100688
0.116492
0.12605
0.167352
0.143917
0.101355
0.195507
0.116673
-0.00237756
-0.0203387
-0.0145141
-0.0110028
-0.0102311
-0.0160361
-0.0106668
-0.00226017
0.00189916
0.202437
-0.204083
-0.00125719
-0.000765664
-0.001949
0.000219724
-0.343869
0.301709
0.000297438
0.294347
-0.303814
0.000446781
0.313306
-0.323992
0.000988999
0.334942
-0.347563
0.00175874
0.35763
-0.371905
0.00226491
0.372988
0.00253965
0.00511998
0.000594996
-9.82788e-05
-0.00112889
3.05512e-05
0.000397913
0.000386932
0.000305373
0.000184947
0.000124113
0.000145543
0.00136843
0.00389648
-0.140898
0.00211804
0.00701827
-0.000387749
0.000157503
0.000242016
8.38819e-05
-0.000237729
-0.000842803
-0.00187405
-0.00264745
0.0100782
-0.00288337
-0.00762479
-0.0101124
0.200402
-0.214057
0.265361
0.000362016
-0.0361513
0.0302034
0.0977949
0.000507567
-0.0871924
0.0819582
0.0839078
0.00025933
-0.0931468
0.0873164
0.0750843
-1.44127e-05
-0.117153
0.111358
0.104393
-0.00206527
0.134923
-0.142013
0.138478
-0.149046
-0.0138305
-0.0799388
0.115271
-0.00972459
-0.110047
-0.00241061
-0.000754244
0.390586
-0.0013217
-0.392926
0.233061
-0.00817497
-0.241031
0.241517
-0.00529619
-0.253144
0.395724
-0.0037669
-0.395686
0.375968
-0.374329
0.372118
-0.381167
0.0011181
-0.391898
0.38697
-0.000670845
-0.241291
-0.00894594
0.243406
-0.20723
0.00171959
0.365851
0.131149
0.375803
0.138007
-0.184758
0.278926
0.0285906
-0.23335
0.246828
0.00791732
-0.228314
0.225686
0.00392444
-0.213797
0.211227
0.00256457
-0.202694
0.197195
0.00119044
-0.191976
0.187629
-0.00288723
-0.187465
0.171022
-0.0182794
-0.192145
0.124859
-0.0896341
-0.23945
-0.072211
-0.223396
0.146096
0.0136858
0.00729813
0.0932018
0.0219249
-0.143518
-0.118206
-0.0327727
-0.0914882
-0.0592117
-0.0462181
-0.101337
-0.050515
-0.0536795
-0.100652
-0.147458
-0.15292
-0.101207
0.252211
0.0140684
-0.149739
-0.00618531
0.207379
0.244015
-0.00205496
-0.182929
-3.63347e-05
0.207868
0.308007
0.00260532
-0.311492
0.000871436
0.320747
0.000339881
-0.329423
0.00172604
0.33794
-5.24736e-05
-0.350774
0.0002116
0.358524
-0.000191992
-0.375526
0.000928009
0.381303
-0.00148396
-0.403989
-0.00239556
0.400853
-0.00662614
-0.436302
-0.0143426
0.00391017
-0.267168
0.434557
0.00267371
0.270338
0.00165922
-0.254027
0.415825
-0.000295374
0.249132
0.00156713
-0.23941
0.391191
-0.00025974
0.232638
0.00116906
-0.224265
0.3675
-5.50403e-05
0.217789
0.00148964
-0.212116
0.346659
0.000108339
0.206182
0.00101054
-0.201786
0.329371
0.000261528
0.195379
0.00101335
-0.195938
0.314392
-0.000894026
0.186878
0.000517691
-0.194919
0.291911
-0.011359
0.207651
-0.0366891
0.0477134
-0.234731
-0.206852
0.107944
-0.198629
-0.0577279
-0.0391916
-0.413649
-0.225369
-0.197774
-0.140055
-0.101479
0.225977
0.261359
0.019121
-0.141863
-0.00763425
0.301077
0.0087485
-0.293475
0.00394784
0.000247843
0.00330467
0.0104954
-0.196693
-0.0089672
0.0944516
-0.0138016
-0.01355
-0.0254238
0.0905192
-0.0298941
0.012322
0.0108239
0.000288176
0.000817374
0.000746181
0.000454742
0.000387147
0.000148504
-0.00144632
-0.0010239
0.268276
-0.310928
0.00123905
-0.00150868
-0.00294418
-0.00018398
-0.248956
-0.000227502
0.256725
-0.272288
-0.000209132
0.277196
-0.287255
7.2598e-05
-3.58756e-06
-0.000609751
-0.000208047
6.21442e-05
0.000665324
0.000697711
0.000542963
0.000345724
0.000218105
0.000146645
0.000810842
0.00117692
0.000427215
0.254627
-0.26041
0.236524
-0.24249
0.248484
-0.254297
0.00170725
-0.128449
0.000608762
0.121013
0.00450703
-0.1306
-6.04277e-05
0.0993432
-0.00993956
-0.00774883
0.0370229
0.00137341
-0.0416448
0.303457
-0.00323409
-0.195047
-0.000891973
0.204306
0.266199
-0.000199057
-0.215907
-0.00168811
0.225153
0.272373
0.00216821
-0.231948
-0.00237061
0.237379
0.290387
0.00417073
-0.250306
-0.0032027
0.248235
-0.270366
-0.00399818
0.249839
-0.29559
0.0081371
-0.00887431
-0.00211552
-0.000687869
0.00011148
0.000332427
0.000478929
0.000990046
0.0018853
-0.00262966
0.000850545
0.0669974
0.0706061
0.0714448
-0.021109
0.0961978
-0.00967523
-0.0100724
0.098823
-0.0186216
0.0903128
-0.0291085
0.00356866
-0.00800431
0.00773371
-0.00193552
0.00181402
-0.00137654
-0.239584
0.0065035
0.00701255
0.0015365
0.000104533
-1.75768e-05
-0.0503152
0.0499286
0.00158508
-0.0423992
0.0651764
-0.013383
0.00553873
-0.00172533
-0.00238341
-0.0124621
0.0937519
-0.23599
0.0142854
-0.15856
-0.00744224
0.202874
0.249218
-0.00514632
-0.186283
0.00041294
0.24834
-0.00329711
-0.200879
-0.000833592
0.215286
0.26062
0.000456605
-0.217413
-0.00171438
0.22561
-0.23299
-0.00247944
0.237646
0.00220413
0.00171461
0.00120219
0.00069994
-0.000218283
0.00566602
-0.00368778
-0.000140974
0.00158816
5.65584e-05
-0.00142474
-0.00673135
-0.00561142
-0.00155381
-0.00154723
0.000897319
0.00344318
-0.000129014
0.00257185
-0.00018761
0.000924869
-0.0116118
-0.0159059
-0.0283523
-0.0310847
-0.0608477
-0.051453
-0.030557
-0.115114
-0.353693
0.0279757
-0.551611
-0.407165
-0.296855
-0.197593
-0.177007
0.0690961
-0.158275
-0.0136142
0.0380391
0.00229452
-0.00498591
0.191018
-0.224648
0.270256
0.00252389
-0.0321944
0.0503992
0.113869
0.00462135
-0.0780555
0.106508
0.106623
0.00498584
-0.0836232
0.110009
0.0998948
0.00374388
-0.111873
0.124521
-0.0058566
0.00386912
0.0149555
0.0693612
-0.296848
-0.429806
0.00802667
0.392306
0.0105876
0.00717599
0.252296
0.00183256
-0.413767
0.432532
-0.000447813
-0.423136
0.24897
-0.276653
0.245432
-0.0312086
-0.269327
0.013062
-0.306457
0.424946
-0.3722
0.37491
-0.00114229
-0.375726
0.000661151
0.372341
-0.00110989
-0.373867
0.000228068
0.375562
-0.0011458
-0.377067
0.378561
-0.435231
0.0263997
-0.311809
0.427716
0.020616
0.0109625
-0.123255
0.133058
-0.137406
0.000164553
-0.110816
0.101873
0.00726508
-0.126597
0.0905499
-0.104187
0.00591185
0.191422
-0.112548
0.0684187
0.016334
-0.130452
0.102763
-0.00209186
-0.00213851
-7.23013e-05
0.00404635
0.00238167
0.00113988
0.000452351
-1.30548e-05
-0.000721492
-0.00175615
0.00262604
-0.000840132
0.0419323
0.04829
9.1673e-05
-0.0114165
-0.00705961
0.0906874
0.032752
-0.077157
0.0396391
0.0512181
-0.0808042
0.00258
-0.0932689
-0.00724772
-0.0218627
-0.0754809
0.118077
0.143683
0.00749811
0.0264061
-0.00641162
0.00361441
0.0631871
-0.0678982
-0.000811652
-0.0713203
0.0711389
0.0679152
-0.0631379
-0.000422128
-0.0859264
-3.72672e-05
0.0859086
2.39072e-05
5.6327e-05
-0.00159598
0.00498525
0.00247892
0.0376199
0.411205
0.223877
0.115416
-0.00236556
-0.0185983
-0.0136631
-0.0113666
-0.0150831
-0.0262171
-0.0491074
-0.0523139
-0.103281
-0.113836
-0.242171
-0.404888
-0.362166
-0.364926
0.154024
-0.235205
-0.0981009
-0.106245
-0.321751
-0.413805
-0.369143
-0.368926
-0.372071
-0.367406
-0.417549
0.156155
-0.0376994
-0.117423
0.486834
-0.148206
-0.30068
-0.289373
-0.0785004
-0.0968636
-0.223659
-0.233934
-0.0523823
-0.0831311
-0.0140806
-0.000960765
0.0032946
0.00355808
0.00295891
0.00172769
-0.00121443
-0.00170523
-0.0108054
-0.00372344
-0.00438963
-0.00746779
-0.00740259
-0.00964075
-0.0164017
-0.0335421
-0.00506696
-0.00577466
-0.00744674
-0.00132492
0.00205187
0.00274555
0.00259745
0.00140177
0.00194174
-0.000321609
0.190763
0.288397
-0.30315
0.305886
-0.316061
0.00128297
0.210802
-0.215773
0.000300473
-0.00170885
0.000392644
0.00260659
-0.212903
0.0091818
-0.0946971
0.0583126
-0.0184162
-0.00558738
-0.00671068
0.00878572
-0.0816744
0.0641218
-0.000475697
-0.000226721
-0.00023177
5.62142e-05
0.0417774
-0.00142811
0.000185863
0.000181367
-0.000105905
-0.0263817
0.000140902
0.0109368
0.00678743
0.00896287
-0.00742392
0.00625533
-9.7854e-05
0.000652025
-0.0263087
0.0815213
0.0808245
-0.0510187
-0.00871202
-0.0404014
0.0776273
0.00682208
0.00153697
4.80783e-05
1.121e-05
-0.00154569
-0.00140005
-0.0014308
-0.000552151
-0.00620184
-0.000959162
-0.00114281
-0.000377776
0.00229602
-0.000373241
0.000789514
-0.225044
0.226066
0.32362
-0.334839
0.344311
-0.360348
0.00338459
0.240267
-0.239247
0.00230249
0.000155749
-0.000468478
0.000848409
0.000277539
0.00277009
0.000402177
0.00216169
0.000715415
0.00274326
0.00354763
0.0102262
0.00976368
0.0105974
0.00470899
0.0727314
0.0013561
0.00198719
0.000957004
0.000315264
-0.000382193
-0.00163771
-0.00177
-0.000693834
-0.00069678
-0.000279391
-4.66393e-05
7.00599e-05
0.000407684
0.000348565
0.000319222
0.000189699
-0.000592684
0.000921522
0.00086373
4.97845e-05
0.000148164
0.000260636
0.000414651
0.000585378
0.00100698
0.000741212
0.001387
0.00208078
0.00130356
0.002841
0.00430125
0.0034876
0.0185003
-0.0293492
-0.0395328
-0.00734706
0.00458201
0.00618206
0.00537196
-0.0965889
-0.00179901
-0.00101669
-0.00142729
-0.00960418
-0.00360231
0.210062
-0.00279513
-0.273792
-0.00203586
-0.012235
-0.253883
-0.0112448
-0.0147918
-0.162304
-0.0752635
-0.127396
-0.313243
0.0310587
0.0794131
0.0051966
-0.00422422
-0.0035813
-0.00660746
0.00164508
-0.188166
0.262172
0.00182176
-0.0580008
0.0259059
0.0903003
0.000509379
-0.112659
0.0716966
0.0726295
-0.000409636
-0.116442
0.0766929
0.0640951
-0.00113327
-0.106849
0.024761
-0.148587
0.0677777
0.106587
-0.142755
0.0428266
0.0201748
-0.00859693
-0.00175703
-0.000513857
0.000274153
0.00039952
0.000463728
0.000924869
0.00155999
0.00184914
0.00181625
0.00304197
0.269292
-0.275181
0.00162271
0.28341
-0.291257
0.261776
-0.269662
0.278331
-0.288568
0.00149622
-0.143819
0.0001758
0.139751
0.00136306
-0.134162
0.000593262
0.131569
-0.000562353
0.000133109
0.0425815
0.0002548
-0.0449101
0.333432
0.00134245
-0.220358
-0.00229952
0.229253
0.296289
0.00379003
-0.247307
-0.00316746
0.301657
0.00831312
-0.26924
-0.00509545
0.249433
0.316889
0.00760528
-0.35428
0.00471866
-0.2945
-0.350696
0.00960229
0.307935
0.256027
-0.289414
0.0055843
-0.00846076
0.00450447
0.0032176
0.00253128
0.00177221
0.00093755
-5.295e-05
-7.29167e-05
0.000556085
0.00052761
0.000228421
0.000534333
0.00014304
0.300387
-0.310719
0.00195335
0.320351
-0.334173
0.298848
-0.309672
0.324621
-0.324778
-0.0117358
-0.162954
-0.00395162
0.165228
-0.000510509
-0.157029
-0.00105178
0.149834
-0.00163767
0.00264112
0.0538725
0.00326981
-0.0460647
0.376964
0.00343658
-0.247162
-0.00507741
0.260839
0.314675
0.0071572
-0.363758
0.00616051
-0.258693
-0.4627
-0.000462051
0.386026
-0.0273358
0.151306
1.18668e-05
0.107827
0.0736844
0.0413559
0.0264878
0.201532
-0.125947
-0.0102045
0.00917464
0.00323242
0.00219843
0.00206926
0.00177022
0.000859014
-0.00219673
0.0014316
0.167876
-0.120205
-0.194641
-0.0445723
0.0369524
-0.0959953
0.307658
-0.141205
-0.17241
-0.166999
-0.0978461
0.231142
0.255739
0.0135191
-0.159675
-0.00670475
0.241387
-0.00446501
-0.182783
0.000528944
0.208459
0.250035
-0.0019069
-0.202164
-0.000986176
0.215092
-0.00159841
-0.000886562
-0.248641
0.00213115
-0.230401
0.0239715
0.0244517
0.00208558
-0.123941
-0.207238
-0.14416
-0.102272
-0.215798
-0.0759535
-0.0386773
0.0225086
0.00631215
0.297849
-0.00410756
-0.182976
0.000103134
0.198003
0.255431
-0.00353303
-0.201631
-0.000834714
0.258923
-7.20412e-05
-0.21632
-0.00172549
0.225498
0.274389
0.00218743
-0.283137
-0.00345766
-0.00246247
-0.265182
0.0103167
0.0104391
0.0167319
0.00194738
-0.226068
0.00889769
-0.178034
0.0021469
-0.0337379
-0.0516108
-0.0121861
0.0173444
-0.0074004
-0.279099
0.00198643
-0.00148331
0.0405095
0.000338216
0.316151
-0.000380132
-0.207018
-0.0017002
0.215007
0.280232
0.00192687
-0.230845
-0.00225297
0.287622
0.00447893
-0.249291
-0.00336408
0.247525
0.30636
0.00734383
-0.327082
0.00264512
-0.000719042
-0.000102006
0.000307624
0.000311879
0.000222001
0.000139654
7.61852e-05
-0.000700142
-0.00177315
-0.00029759
-0.000431441
-0.000604185
-2.34251e-05
0.000379253
0.000662429
0.000915711
0.000358388
0.000277392
-7.54373e-05
-9.56547e-05
-0.000643942
-0.000304916
0.271101
1.27944e-05
-0.270934
0.277593
5.84048e-05
-0.286576
0.286809
-0.277184
0.279993
-0.000310082
-0.290574
0.286098
-0.278249
0.270779
-0.00112935
-0.275949
0.259502
-0.258523
0.258812
-0.259564
0.00114129
-0.270906
0.276429
0.000641036
-0.280046
0.000433526
-0.286262
0.291214
0.000418479
-0.296968
0.000143063
-0.302424
0.307078
-0.302681
0.303024
0.000120338
0.293883
-0.293375
-5.06905e-05
0.296988
9.39303e-05
-0.306363
0.302334
-0.293301
-0.00072925
-0.32759
0.201746
-0.000161958
0.316932
-0.00155954
-0.312887
0.19569
0.000880829
0.298416
-0.262058
0.248585
-0.000914477
-0.252828
-0.000272892
0.246697
4.05566e-05
-0.246593
0.000567307
0.253049
0.000949044
-0.248607
0.26273
-0.29917
0.00217178
0.00316665
0.00283921
0.0104569
0.00708987
-0.14651
0.151125
-0.148898
0.148882
-3.6053e-05
-0.000430956
-0.000410797
-0.151109
0.146421
-0.00716475
-0.00412425
0.0781568
-0.0873029
0.000307094
-0.000569367
0.244177
-0.247192
0.24736
-0.244271
0.2525
-0.265647
-0.00716133
-0.0027003
-0.07815
0.00411349
0.0872668
-0.00360845
0.00165697
0.00157351
7.03985e-05
0.000120966
0.000178206
0.000213097
0.000186068
-0.311239
0.000102785
-0.321194
0.321622
-0.324881
0.32132
0.000232668
0.315438
-0.310744
-0.000203089
-0.344812
0.211746
0.000186368
0.334418
-0.205557
-0.000882766
-0.184006
0.190545
-0.000110114
-0.194433
0.201788
0.000346946
-0.205809
0.218026
0.00272851
-0.218238
0.238456
0.00187725
-0.236776
-0.0113034
-0.0018222
-0.00384734
0.000427904
-0.00212748
-0.000298832
-0.00212393
-0.000762743
-0.00224614
9.12253e-05
0.00199113
0.185344
-0.195119
-0.000920576
-0.170058
0.189461
0.0175887
0.00704687
-0.00152447
0.00664498
-0.124596
-0.000620211
0.194901
0.0112234
-0.291078
-0.00191542
-0.00291167
0.0152794
0.0103159
-0.0136984
-0.145896
0.222976
0.0723721
0.238039
0.0883251
0.0502471
0.0118876
0.0363299
-0.207619
0.265308
-0.252065
0.00714018
0.00117186
-0.0114463
-0.00303615
-0.00152194
0.00504955
0.00173873
0.00129591
0.00159761
0.000671931
-0.365811
0.224577
-0.218121
0.354921
0.00016588
-0.000385221
-0.00134519
-0.000257007
-0.000263565
0.000189008
0.000348223
0.000801938
0.000312592
-0.330584
0.000202905
-0.345331
0.342702
-0.389832
0.239239
0.00128745
0.379303
-0.233675
0.000977624
-0.000664317
0.0034876
0.00211995
-0.000666705
0.00143361
0.253529
0.367769
-0.393784
0.034022
0.00514749
0.00186343
0.00976595
0.00284497
0.00848224
-0.258478
0.00835445
0.0248486
-0.28083
0.00512279
0.00145854
0.000923874
0.00174767
0.00292324
0.00408071
0.00193299
0.0010804
0.000605821
0.000471837
0.000387507
0.000560402
0.000742146
0.00051994
0.000420811
0.000524795
0.000559205
0.00046429
0.00058778
0.00071047
0.000409896
0.00145795
0.000853136
0.00106409
0.000779897
0.00016086
-0.000452338
-0.000128766
0.00137117
0.00250305
0.000295739
-0.0139891
0.00176479
0.000555363
0.000716189
0.00094625
0.00116111
0.00106367
0.00205497
0.00120651
0.00227158
0.00123121
0.341684
-0.360712
0.00260672
0.358699
0.00619994
0.00122974
0.00315769
0.0171112
-0.0611431
0.164797
-0.133133
0.280745
0.0409364
0.186023
-0.153166
0.126328
-0.1322
0.0868995
0.0988719
-0.144115
0.0328832
-0.151854
0.091811
0.0952471
0.18442
-0.00890829
-0.00275107
-0.0233382
-0.00126895
-0.102693
-0.00172472
-0.000624587
0.00060471
0.000822875
0.0015013
0.000882446
0.000628015
0.000787946
0.000615841
8.83648e-05
0.000580837
0.000237558
0.00287954
0.00172276
0.00109197
-0.345378
0.354624
0.00255035
-0.234483
-0.00329231
0.24645
0.31074
0.00667183
-0.265718
-0.00469644
-0.324598
0.00328441
0.00258081
2.37621e-05
0.000353603
0.000149258
0.00273593
0.000604177
0.000299671
0.000447254
0.000400524
0.000195285
0.000973588
0.000104204
-0.00132698
-0.222257
0.00241264
0.208374
0.0104022
0.208824
-0.182735
-0.197333
0.233209
-0.155549
-0.146367
-0.121954
0.00281164
-0.0007629
-0.00111345
-0.250069
0.0132213
-0.00317332
-0.0422476
0.00352853
0.00974164
-0.00309222
-0.322555
0.00433015
0.000740004
0.0457155
0.00101392
-0.0474449
-0.00287737
0.00730945
0.00959495
0.008921
-0.00273604
-0.269306
-0.00241941
-0.262099
0.00776248
-0.00374677
-0.288614
-0.00339336
0.237986
0.00540057
-0.00518201
-0.310177
0.00134173
-0.37379
0.0212823
0.0117039
0.0805689
0.00784052
-0.410924
0.0250565
0.010957
0.0135082
0.0339648
0.178815
0.422275
0.219997
0.323668
-0.0196996
-0.00844698
-0.335011
-0.000969551
-0.0114439
0.017722
0.217755
0.314724
-0.0199085
-0.00861421
-0.00494944
0.25039
-0.301277
0.00330973
0.00711541
-0.00614987
-0.0192898
0.00855826
0.200855
0.317104
-0.0207964
-0.00890844
-0.00515075
-0.303622
-0.00600415
-0.00417668
-0.00330904
0.0061438
0.00678756
0.00340681
-0.0145529
-0.00253212
0.00568066
0.00470277
0.00206241
-0.00818771
-0.0113029
0.00695032
0.183348
0.354893
-0.0649403
0.0614971
0.0273658
0.0305334
0.00714531
-0.00201494
-0.000850541
-0.000298754
-5.49202e-05
9.07039e-05
0.000404683
0.0014413
-5.54121e-05
-8.10742e-05
-0.000615487
0.000969606
0.000546105
0.000602674
-0.00110518
-0.0111167
-0.0157231
-0.00520268
0.00166932
0.00184615
-0.318059
0.279114
0.000847881
0.000876059
0.000885523
0.00163329
0.0019254
0.00189421
0.000688425
-0.00494013
0.0750175
-0.254381
0.0132452
0.00120388
0.000681713
0.000443878
0.000447129
0.000598324
0.000155974
0.000334869
0.000287939
0.000386199
0.000170032
0.000230078
0.000233492
0.000802764
0.000787137
0.341976
-7.76316e-05
-0.341612
0.353292
-0.000511328
-0.361823
0.361635
-0.352845
0.358353
-0.000167706
-0.365246
0.364213
-0.351576
0.0011975
0.40718
-0.253383
0.00340694
0.00113805
0.00193668
0.00212535
0.00134154
-0.00796041
-0.0178526
-0.0360561
-0.0797602
0.00329065
-0.0333008
-0.0116107
-0.00348617
0.00438668
0.00383437
-0.000103095
0.000307165
0.000889594
0.000482761
0.336162
-0.331307
0.331922
-0.335899
-0.000178134
-0.341847
0.345902
5.03116e-06
-0.358397
-0.000624751
-0.363077
0.365522
-0.000230599
-0.379169
0.373229
-0.42993
-0.00109102
-0.00224618
-0.000903816
0.000296219
0.000547289
0.00199527
0.00463581
0.0172533
0.0744312
-0.0275184
0.811843
-0.0200557
-0.00410277
-0.0149928
-0.147269
0.0306894
0.0846703
0.0071361
-0.00131437
-0.0804143
-0.00150591
0.00230996
0.00543833
0.000382819
0.000471067
0.00670177
0.00367663
-0.254247
0.213533
-0.00898409
-0.00601208
-0.000825982
0.04347
-0.0103399
0.0358867
0.0578301
0.0960355
0.189032
0.0453162
-0.117172
0.0465266
-0.151539
0.0366561
0.0193956
-0.112005
0.00678074
-0.00215843
0.000246824
-0.000490667
7.39199e-05
0.00200507
-0.00102523
-0.00237387
-0.000488624
-0.00272647
-0.000833499
6.13052e-05
-9.11279e-05
0.000190437
-9.07499e-05
-0.00010034
-0.0007514
6.15519e-05
0.00111014
0.00226796
0.00826894
0.0970113
0.409433
0.0229764
-0.0683146
0.262744
-0.000233682
-0.0520667
-0.0202173
-0.0303926
0.806063
-0.0160924
-0.00434146
0.00558464
0.00192292
0.00474181
-0.07292
-0.00175922
-0.00182444
-0.0157245
-0.148374
-0.129715
-0.0798804
-0.302994
0.0312884
0.0749493
0.00368581
-0.00423902
-0.00446834
-0.0024561
-0.0895594
-0.00451544
0.0432048
-0.0265952
0.0460947
-0.00273681
-0.0818616
-0.00489881
-0.00254489
-6.38795e-05
0.00542243
0.0215012
0.00390833
0.00468331
0.020262
0.0197101
0.00162203
-0.00161591
-0.000405871
0.000915838
0.00266361
-0.00127847
-0.000790766
0.0144119
0.29848
0.0163743
0.00280264
0.000429096
-0.000699365
-0.000819101
-0.00086977
-0.00157104
0.000719477
0.294273
-0.335547
0.00101051
0.000952721
0.000272552
0.000537749
-0.355574
0.311721
2.71102e-05
-0.321032
0.325584
-0.315277
0.000282974
0.31182
0.000230023
0.000132552
4.16255e-05
2.48513e-05
0.000365284
0.000661205
0.00023147
0.000111633
-0.000119058
-0.00076316
0.00138048
0.37734
-0.37214
0.371898
-9.56391e-05
7.1722e-05
0.000156666
0.000171558
-7.38399e-05
0.331714
-0.378869
0.000214834
0.000662375
0.000833484
-0.000646594
-0.000309915
-0.404809
0.353325
-0.000515887
0.002418
0.00166432
0.00278697
0.00171713
0.00133204
-0.00722137
-0.012427
-0.0512403
-0.00778403
-0.000120678
0.00111754
0.000240999
0.00119773
0.00156172
0.00258475
-0.00124435
-0.00121074
3.62125e-05
-0.000251076
-0.00168279
-0.000817578
-0.000973583
0.000111193
-0.00170587
0.00118641
-0.00184307
-0.00652876
-0.000571253
-0.00226549
-0.0141506
0.0105044
0.0290508
0.00034654
0.00105852
-0.369614
0.00261623
0.0137554
0.0835878
-0.00184901
-0.00251574
-0.0179774
-0.173537
-0.106813
0.0244556
-0.00309895
-0.00245054
-0.00198968
-0.0220869
-0.00325321
0.162399
0.047645
-0.0083361
0.0339801
0.243893
0.020796
-0.00367492
-0.00636119
-0.00745031
-0.0110793
-0.267337
-0.237242
0.0016766
0.0236681
0.00950448
0.040359
-0.0759719
0.000431749
0.00383468
-0.0113577
0.00179706
-0.280626
0.00875392
0.00482878
0.00322895
0.00177636
0.000549945
-0.000723731
-0.302534
0.214706
-0.243862
0.0168103
0.183358
0.264129
0.00335443
-0.00102839
-0.000326841
-0.0482403
-0.186674
-0.0131352
-0.00347615
-0.00140311
-0.00149263
-0.0539326
0.000376457
-0.267693
0.0068758
-0.255003
-0.00190807
0.0281664
0.000835147
-0.0643781
0.0302886
-0.00877853
0.206479
0.000394098
-0.172022
0.0234828
0.0875115
0.0100878
0.000123743
0.00154704
0.000402437
0.00437596
0.195729
-0.394119
0.00160299
-0.102007
0.00144841
0.0169583
0.0244586
0.0167778
0.010039
0.00637809
0.00183457
-0.00842903
-0.0226061
0.00820524
0.197549
0.243687
0.239428
0.165194
-0.384666
-0.363276
-0.0170601
0.35589
-0.008209
-0.422139
0.0706138
0.0127811
-0.0489176
0.0499546
0.0041728
-0.0468847
0.045137
0.00274154
-0.0421587
0.0428231
0.00219408
-0.0392422
0.0396866
0.000749508
-0.0381505
0.0362508
-0.00208499
-0.039529
0.0315967
-0.00898833
-0.0501057
0.0182776
-0.0394325
-0.0948306
-0.0453765
-0.141395
-0.173493
-0.169841
-0.144449
-0.153641
-0.15988
-0.152958
-0.165071
-0.157057
-0.156044
-0.162502
-0.155496
-0.166007
-0.164743
-0.153769
-0.20452
-0.0961399
-0.0922646
0.354884
0.0227343
0.199954
-0.0985336
0.258758
0.0165666
0.229682
-0.101295
0.245016
0.0138092
0.236839
-0.1016
0.242245
0.014267
0.249252
-0.0983331
0.234968
0.0151794
0.305353
0.0366651
-0.0259884
-0.19483
-0.00124023
-0.148831
0.0981353
-0.132473
0.120533
-0.129761
0.131914
-0.132662
0.141829
-0.139846
0.151238
-0.147768
0.164007
-0.152584