/*--------------------------------*- C++ -*----------------------------------*\
| =========                 |                                                 |
| \\      /  F ield         | OpenFOAM: The Open Source CFD Toolbox           |
|  \\    /   O peration     | Version:  2306                                  |
|   \\  /    A nd           | Website:  www.openfoam.com                      |
|    \\/     M anipulation  |                                                 |
\*---------------------------------------------------------------------------*/
FoamFile
{
    version     2.0;
    format      ascii;
    arch        "LSB;label=32;scalar=64";
    class       volVectorField;
    location    "0.2";
    object      flux;
}
// * * * * * * * * * * * * * * * * * * * * * * * * * * * * * * * * * * * * * //

dimensions      [0 1 -1 1 0 0 0];

internalField   nonuniform List<vector> 
2658
(
(8.5712e-07 8.37159e-07 -5.70407e-06)
(1.32415e-06 5.16867e-07 -5.07182e-06)
(3.01912e-07 1.10708e-07 -1.68012e-06)
(3.00508e-08 6.75203e-09 -1.3526e-06)
(-6.35426e-07 -6.28353e-07 -2.2232e-06)
(-5.26514e-07 7.50497e-07 -2.23262e-06)
(3.11423e-07 -3.77009e-07 -1.19835e-06)
(3.18308e-07 3.15145e-07 -1.18563e-06)
(7.65245e-09 3.00774e-08 -1.35201e-06)
(7.51315e-07 -5.37182e-07 -2.23072e-06)
(-7.19752e-07 6.87693e-08 -3.4506e-06)
(-7.60111e-07 -2.65359e-06 -3.73827e-06)
(7.53579e-07 2.05774e-06 -6.03922e-06)
(7.57828e-07 2.07038e-06 -6.02942e-06)
(5.37599e-07 1.76678e-06 -5.72331e-06)
(4.6574e-08 1.76876e-06 -5.83881e-06)
(-1.50873e-08 1.86726e-06 -6.15741e-06)
(-7.01215e-08 1.7531e-06 -5.83191e-06)
(-5.57672e-07 1.80182e-06 -5.68531e-06)
(-8.06939e-07 2.04832e-06 -5.93703e-06)
(-8.89374e-07 2.01239e-06 -5.92461e-06)
(-2.04752e-06 1.85718e-06 -5.36115e-06)
(-2.23359e-06 6.61742e-07 -5.91336e-06)
(1.44256e-06 -2.68383e-07 -3.67882e-06)
(-5.43281e-07 4.90258e-07 -6.12817e-06)
(-9.88567e-07 1.84733e-06 -5.96261e-06)
(-2.09255e-06 -3.53759e-07 -5.6189e-06)
(-2.30156e-07 1.36882e-07 -5.92495e-06)
(-1.5247e-06 1.50349e-06 -6.41626e-06)
(-1.77704e-06 -8.29265e-11 -5.83256e-06)
(-1.52467e-06 -1.50351e-06 -6.41618e-06)
(-2.0926e-06 3.53776e-07 -5.61889e-06)
(-9.88614e-07 -1.84743e-06 -5.96253e-06)
(-2.23367e-06 -6.61763e-07 -5.91321e-06)
(-5.43231e-07 -4.90243e-07 -6.1281e-06)
(1.44252e-06 2.68419e-07 -3.6787e-06)
(-3.32601e-07 1.22184e-07 -3.81341e-06)
(3.18372e-07 1.49215e-07 -7.07975e-06)
(-2.04733e-06 -1.85767e-06 -5.3611e-06)
(-8.8962e-07 -2.01247e-06 -5.92474e-06)
(-8.06953e-07 -2.04845e-06 -5.93715e-06)
(-5.5766e-07 -1.80188e-06 -5.68533e-06)
(-7.02596e-08 -1.75297e-06 -5.83185e-06)
(7.08578e-08 7.11801e-07 -6.9034e-06)
(-4.89188e-07 1.04722e-07 -3.27388e-06)
(4.63465e-07 1.37009e-07 -3.24774e-06)
(-7.19736e-07 -6.87755e-08 -3.45061e-06)
(-4.48721e-08 7.44664e-07 -6.91574e-06)
(4.63912e-08 -1.76907e-06 -5.83893e-06)
(5.37614e-07 -1.7668e-06 -5.72335e-06)
(7.57854e-07 -2.07025e-06 -6.02934e-06)
(7.53567e-07 -2.05775e-06 -6.03929e-06)
(1.96079e-06 -1.93979e-06 -5.46032e-06)
(-3.26538e-07 3.20701e-07 -7.4505e-06)
(2.07476e-06 -7.44096e-07 -6.04442e-06)
(1.77317e-06 -5.38071e-07 -5.72212e-06)
(-7.51343e-07 4.91309e-08 -6.911e-06)
(-1.28587e-07 -4.61342e-07 -3.25475e-06)
(-2.3574e-06 -5.28203e-12 -3.78198e-06)
(1.75553e-06 6.20379e-08 -5.83532e-06)
(-7.51305e-07 -4.91071e-08 -6.91106e-06)
(1.7732e-06 5.38068e-07 -5.7222e-06)
(2.07476e-06 7.44152e-07 -6.04447e-06)
(-3.26484e-07 -3.2073e-07 -7.4505e-06)
(6.81209e-08 6.61487e-08 -3.73417e-06)
(-2.65071e-06 -7.43629e-07 -3.74553e-06)
(6.13226e-08 -7.24981e-07 -3.44422e-06)
(-1.19423e-07 -5.84727e-08 -2.43777e-06)
(-3.96187e-07 -8.26406e-07 -2.18169e-06)
(-3.96227e-07 8.26406e-07 -2.18164e-06)
(3.07626e-08 5.10151e-12 -1.3436e-06)
(2.14694e-07 4.02009e-07 -1.15577e-06)
(-5.10367e-08 -1.28472e-08 -6.43375e-07)
(-1.37487e-07 1.82971e-07 -5.68022e-07)
(1.24739e-08 6.12527e-10 -3.13925e-07)
(-1.50274e-07 -1.4772e-07 -5.71141e-07)
(1.81697e-07 -1.40888e-07 -5.66713e-07)
(6.8359e-10 1.31638e-08 -3.13385e-07)
(-8.3138e-08 6.48415e-08 -2.62021e-07)
(8.78628e-08 3.93075e-08 -2.52616e-07)
(-2.13005e-07 -9.58607e-08 -5.64902e-07)
(-1.45709e-08 -4.95967e-08 -6.43135e-07)
(4.04796e-07 2.03278e-07 -1.15084e-06)
(-3.76873e-07 3.20239e-07 -1.20192e-06)
(1.60648e-08 1.65047e-08 -1.34588e-06)
(6.54088e-10 1.11955e-09 -3.1787e-07)
(1.58171e-10 3.41676e-10 -5.83168e-08)
(1.22846e-11 5.85443e-11 -8.55768e-09)
(-2.50877e-12 6.08753e-12 -1.04058e-09)
(-8.54397e-13 4.36683e-13 -1.07995e-10)
(-1.29728e-13 4.20242e-14 -9.76354e-12)
(-4.01746e-14 -3.6403e-14 -8.96854e-13)
(-1.32087e-14 -9.72904e-15 -2.16654e-13)
(-6.45684e-14 1.4189e-14 -2.10197e-13)
(1.96755e-14 -1.45324e-14 -1.37077e-13)
(-2.24336e-14 -1.24719e-13 -3.21927e-13)
(-3.10305e-14 -8.45533e-15 -1.38727e-13)
(3.14536e-15 -1.77764e-14 -1.40584e-13)
(2.60163e-14 -7.92581e-15 -1.31633e-13)
(-2.70139e-14 -4.19705e-15 -1.16663e-13)
(3.22466e-15 -2.01225e-14 -1.28225e-13)
(2.9666e-14 -1.33719e-14 -1.25239e-13)
(7.24939e-14 -7.93409e-14 -2.53544e-13)
(1.01601e-14 -8.2065e-15 -1.23026e-13)
(2.07992e-14 -1.1885e-14 -1.18529e-13)
(-4.26143e-14 1.1659e-14 -2.05342e-13)
(8.72943e-15 -9.2537e-15 -1.69891e-13)
(1.01189e-14 -3.4525e-14 -6.2626e-13)
(1.00653e-14 -1.0496e-14 -1.73479e-13)
(1.6781e-14 -2.32716e-14 -1.48766e-13)
(2.23477e-14 -9.39322e-16 -1.25273e-13)
(9.94995e-15 -7.47984e-15 -9.23833e-14)
(8.01232e-15 -1.11504e-14 -9.51657e-14)
(8.91634e-15 1.02943e-14 -8.57289e-14)
(2.23224e-14 7.34684e-16 -1.13167e-13)
(1.97248e-14 1.66823e-14 -1.34065e-13)
(1.69588e-14 2.21007e-14 -1.18252e-13)
(-3.82794e-14 -1.0336e-14 -1.99794e-13)
(7.33619e-14 8.95826e-14 -2.53838e-13)
(9.57138e-15 1.73899e-14 -1.35314e-13)
(3.50865e-14 2.06515e-14 -1.28549e-13)
(1.01614e-14 2.11567e-14 -1.72048e-13)
(-2.28814e-14 1.41575e-14 -1.32241e-13)
(2.56282e-14 1.18482e-14 -1.30181e-13)
(-6.70843e-14 -8.95338e-15 -2.19414e-13)
(5.49794e-14 -4.98567e-15 -2.14199e-13)
(-6.69487e-14 -1.82536e-14 -2.14049e-13)
(-1.98998e-14 1.25159e-13 -3.24035e-13)
(-2.90678e-14 9.765e-15 -1.42912e-13)
(2.50294e-14 9.09265e-15 -1.42245e-13)
(-1.54926e-15 2.38179e-14 -1.5218e-13)
(-3.85305e-14 5.98106e-15 -1.37633e-13)
(-2.10438e-14 6.25143e-15 -1.7743e-13)
(-2.83264e-14 2.05358e-14 -1.64371e-13)
(-1.69258e-14 2.46568e-14 -1.8977e-13)
(-2.70521e-14 -3.60241e-15 -2.11712e-13)
(-5.31815e-14 6.75079e-15 -2.32977e-13)
(-1.87713e-13 2.53174e-14 -4.52704e-13)
(2.98697e-14 -4.49987e-14 -2.64616e-13)
(2.72288e-14 4.84856e-14 -2.64841e-13)
(-4.50394e-14 -9.10392e-15 -2.21079e-13)
(-2.89175e-14 5.1426e-15 -2.05706e-13)
(-1.02626e-14 -5.1118e-15 -1.68841e-13)
(-2.26566e-14 -5.48749e-15 -1.64801e-13)
(-2.79639e-14 7.63373e-15 -2.2922e-13)
(-2.31205e-14 3.16164e-15 -1.63912e-13)
(-2.5239e-14 5.43741e-15 -2.30067e-13)
(-6.09583e-14 8.85633e-15 -3.97388e-13)
(-4.73693e-14 -1.30366e-14 -1.83442e-13)
(-5.16086e-14 1.18758e-14 -2.00348e-13)
(-3.79044e-14 -1.30513e-15 -1.54385e-13)
(-5.13955e-14 -1.46581e-15 -2.65501e-13)
(-3.96471e-14 1.49473e-14 -4.27488e-13)
(-4.68805e-14 -2.43289e-14 -1.51902e-13)
(-6.87254e-14 6.40594e-14 -2.88511e-13)
(-9.85741e-14 1.34103e-14 -2.93062e-13)
(-6.2081e-14 6.23105e-14 -2.7095e-13)
(-3.73938e-14 7.67133e-14 -2.64225e-13)
(-3.50044e-14 9.48555e-14 -2.22232e-13)
(-4.02635e-14 6.55635e-14 -2.64128e-13)
(7.41597e-15 7.25523e-14 -2.61037e-13)
(9.79539e-16 8.35685e-14 -2.14747e-13)
(-1.52856e-14 7.42582e-14 -2.71099e-13)
(2.44411e-14 6.07774e-14 -2.35411e-13)
(4.15142e-14 7.9555e-14 -1.88292e-13)
(2.18759e-14 8.16142e-14 -2.24735e-13)
(4.15885e-14 5.52911e-14 -2.28649e-13)
(9.34416e-14 3.2196e-14 -2.50439e-13)
(2.5299e-14 8.07599e-14 -6.44298e-13)
(3.21429e-13 2.08809e-13 -1.19107e-12)
(-1.24278e-12 -6.30897e-13 -4.88721e-12)
(5.7836e-12 4.52177e-12 -1.81516e-11)
(-1.50473e-11 -8.86977e-12 -6.13284e-11)
(6.48513e-11 4.84094e-11 -2.04711e-10)
(-1.61702e-10 -1.05074e-10 -6.45387e-10)
(6.26478e-10 4.4643e-10 -1.99439e-09)
(-1.49584e-09 -1.04128e-09 -5.80322e-09)
(5.13789e-09 3.50137e-09 -1.64272e-08)
(-1.15954e-08 -8.52365e-09 -4.35228e-08)
(3.48515e-08 2.27385e-08 -1.10991e-07)
(-7.26738e-08 -5.61331e-08 -2.62713e-07)
(1.88713e-07 1.18243e-07 -5.88789e-07)
(-3.52611e-07 -2.87384e-07 -1.21937e-06)
(7.86991e-07 4.59151e-07 -2.32751e-06)
(-7.69307e-07 4.76283e-07 -2.22278e-06)
(8.17219e-07 4.03187e-07 -2.16564e-06)
(-8.39884e-07 3.83797e-07 -2.19285e-06)
(7.51293e-07 5.37204e-07 -2.23068e-06)
(-6.3545e-07 6.28332e-07 -2.22315e-06)
(3.00514e-08 -6.7549e-09 -1.35257e-06)
(-5.26476e-07 -7.50509e-07 -2.23264e-06)
(6.12849e-08 7.24993e-07 -3.44417e-06)
(-2.65066e-06 7.43585e-07 -3.74554e-06)
(6.81284e-08 -6.61464e-08 -3.73417e-06)
(-7.60127e-07 2.65358e-06 -3.73829e-06)
(4.07204e-07 -4.04379e-07 -5.79513e-06)
(1.60649e-08 -1.65098e-08 -1.34587e-06)
(6.54729e-10 -1.1215e-09 -3.17866e-07)
(1.57378e-10 -3.41427e-10 -5.83163e-08)
(1.21415e-11 -5.85742e-11 -8.5575e-09)
(-2.51856e-12 -6.09818e-12 -1.04054e-09)
(-8.53831e-13 -4.35888e-13 -1.07985e-10)
(-1.21995e-13 -4.0478e-14 -9.76617e-12)
(-3.94383e-14 3.49336e-14 -8.98036e-13)
(-1.20823e-14 4.91792e-16 -2.20142e-13)
(-7.29168e-15 2.26748e-15 -2.19031e-13)
(-3.71009e-14 -1.3946e-14 -2.60128e-13)
(-1.90297e-14 3.98669e-14 -7.60369e-13)
(8.19879e-16 -4.35632e-15 -2.35832e-13)
(1.66306e-15 5.36211e-15 -2.3981e-13)
(-3.01793e-14 1.91775e-14 -2.50529e-13)
(-3.0798e-16 4.44154e-15 -2.09877e-13)
(-2.84066e-14 -5.02906e-14 -7.58287e-13)
(-3.25006e-15 -1.06415e-14 -2.10789e-13)
(6.22405e-14 1.08199e-14 -2.22978e-13)
(-6.71113e-14 1.14395e-14 -2.24578e-13)
(2.99786e-15 -1.07134e-13 -2.88159e-13)
(3.87123e-14 7.32288e-15 -1.7463e-13)
(-4.61729e-16 -7.84997e-15 -1.68327e-13)
(-1.48141e-14 1.05985e-16 -1.79556e-13)
(-1.85612e-14 -2.18728e-14 -2.14096e-13)
(3.03294e-15 -8.64188e-15 -2.08305e-13)
(-2.25208e-14 -3.74484e-15 -8.99525e-13)
(-3.9415e-15 8.93349e-16 -8.07618e-13)
(-1.26818e-14 -2.41469e-15 -9.04926e-13)
(-6.0012e-15 1.55699e-15 -8.05359e-13)
(-1.03437e-14 4.42766e-15 -1.77519e-13)
(-4.26338e-15 1.48037e-14 -1.76521e-13)
(-2.49109e-14 -2.13395e-14 -2.15644e-13)
(6.62932e-15 2.23192e-14 -6.22358e-13)
(3.08227e-15 -1.28524e-14 -1.95712e-13)
(-2.00728e-15 7.92503e-15 -1.88028e-13)
(-2.0268e-14 1.9551e-14 -2.08338e-13)
(1.52126e-15 -5.34971e-15 -2.13272e-13)
(9.0064e-15 -1.67532e-15 -2.17996e-13)
(-2.88051e-14 -1.05681e-14 -2.36798e-13)
(-2.56225e-14 1.29941e-14 -2.39126e-13)
(-3.62645e-15 -4.23945e-14 -6.98036e-13)
(7.83647e-15 5.44481e-15 -2.17122e-13)
(-2.38413e-15 -8.22547e-15 -1.48313e-13)
(1.04598e-15 7.23637e-16 -7.65021e-14)
(-1.6686e-15 1.12388e-15 -7.81793e-14)
(3.05997e-15 -1.2082e-15 -9.75939e-14)
(9.41168e-15 1.49628e-14 -1.14293e-13)
(2.11304e-15 -4.39728e-16 -8.1602e-14)
(1.78337e-15 -2.93621e-15 -7.88194e-14)
(1.29794e-15 -2.3413e-15 -2.49663e-13)
(-1.61986e-14 -1.8166e-15 -8.2165e-13)
(3.57557e-14 -3.16229e-14 -5.02693e-13)
(7.99552e-14 5.79329e-14 -4.35434e-13)
(3.96007e-14 6.75586e-14 -2.18748e-13)
(5.30696e-14 -8.53008e-15 -1.3324e-13)
(3.52392e-14 3.82631e-14 -1.84069e-13)
(-1.47679e-13 -7.91863e-14 -4.39045e-13)
(5.04287e-13 4.51688e-13 -1.80234e-12)
(-1.4382e-12 -9.41183e-13 -5.55632e-12)
(-1.43291e-12 9.32149e-13 -5.54955e-12)
(4.73264e-13 -1.95017e-13 -5.97761e-12)
(-3.92283e-12 2.70443e-12 -1.81579e-11)
(5.56239e-13 -1.89208e-12 -1.99621e-11)
(1.7923e-11 -1.60929e-11 -6.26259e-11)
(-4.42227e-11 3.33097e-11 -2.03739e-10)
(3.68965e-12 -1.95116e-11 -2.18747e-10)
(1.82534e-10 -1.60678e-10 -6.54079e-10)
(-4.46795e-10 3.5189e-10 -1.98675e-09)
(1.83476e-11 -1.60416e-10 -2.07313e-09)
(1.6027e-09 -1.39099e-09 -5.88761e-09)
(-3.85221e-09 3.13225e-09 -1.64513e-08)
(3.83678e-11 -1.05902e-09 -1.65522e-08)
(1.18378e-08 -1.01318e-08 -4.42954e-08)
(-2.71756e-08 2.28406e-08 -1.11797e-07)
(-3.27755e-10 -5.67684e-09 -1.07502e-07)
(7.15204e-08 -5.97933e-08 -2.68032e-07)
(-1.49106e-07 1.31522e-07 -5.97407e-07)
(-2.37435e-09 -2.57959e-08 -5.41944e-07)
(3.48737e-07 -2.73228e-07 -1.23718e-06)
(-5.83265e-07 5.63705e-07 -2.42875e-06)
(-4.85493e-08 -1.3234e-07 -2.1379e-06)
(1.49621e-06 -1.03892e-06 -4.09352e-06)
(2.63257e-07 -6.08685e-07 -3.28013e-06)
(2.27947e-06 -1.47624e-06 -4.7856e-06)
(2.27944e-06 1.47626e-06 -4.78557e-06)
(-2.30107e-07 -1.36814e-07 -5.92483e-06)
(7.42481e-07 -5.51534e-07 -6.55119e-06)
(-1.72611e-07 8.22899e-07 -5.115e-06)
(8.59753e-07 7.30094e-07 -4.61301e-06)
(8.08745e-08 -4.28934e-12 -7.23744e-06)
(-4.63977e-07 -4.74905e-07 -4.28456e-06)
(-4.63986e-07 4.74922e-07 -4.2846e-06)
(5.73647e-07 5.20371e-07 -4.32683e-06)
(-1.06518e-08 4.23998e-12 -7.20491e-06)
(-6.27107e-07 -6.13379e-07 -4.37469e-06)
(-6.27108e-07 6.134e-07 -4.37471e-06)
(1.7277e-07 2.65109e-07 -4.29255e-06)
(-2.55395e-07 7.48817e-12 -7.3299e-06)
(-1.07926e-06 -1.77847e-06 -5.80626e-06)
(-1.07927e-06 1.77848e-06 -5.80626e-06)
(5.55525e-07 -1.32392e-06 -8.33726e-06)
(1.79703e-06 2.34759e-11 -1.24062e-05)
(5.55527e-07 1.32392e-06 -8.33728e-06)
(7.94987e-07 -1.0381e-06 -8.50104e-06)
(1.98365e-06 6.63002e-07 -1.22821e-05)
(9.12585e-07 1.5277e-06 -8.54595e-06)
(1.15799e-06 1.14718e-06 -9.99922e-06)
(1.11066e-06 1.10145e-06 -7.3013e-06)
(-1.91588e-06 -1.9084e-06 -7.0479e-06)
(-1.09865e-06 1.20756e-06 -5.6347e-06)
(8.00737e-07 1.32616e-07 -6.42291e-06)
(7.66163e-07 1.02655e-07 -9.11317e-06)
(-2.41176e-08 -2.09852e-08 -7.75361e-06)
(1.72767e-07 -2.65096e-07 -4.29254e-06)
(-1.15676e-07 -1.13636e-07 -4.1792e-06)
(-3.40238e-07 -3.46301e-07 -7.4216e-06)
(1.22455e-06 -1.08713e-06 -5.67491e-06)
(-1.03755e-06 7.88073e-07 -8.50599e-06)
(6.70297e-07 1.95265e-06 -1.22839e-05)
(1.53982e-06 9.00651e-07 -8.55225e-06)
(8.83758e-07 8.75369e-07 -9.36228e-06)
(-5.11396e-07 -5.14377e-07 -8.81827e-06)
(-6.636e-07 2.29696e-11 -8.89319e-06)
(-5.11374e-07 5.1442e-07 -8.81822e-06)
(-3.40255e-07 3.46313e-07 -7.4216e-06)
(-1.09863e-06 -1.20755e-06 -5.63469e-06)
(-1.91587e-06 1.90838e-06 -7.04795e-06)
(9.12602e-07 -1.52782e-06 -8.54568e-06)
(1.98371e-06 -6.63076e-07 -1.22822e-05)
(7.95037e-07 1.0381e-06 -8.50097e-06)
(8.00747e-07 -1.32635e-07 -6.42299e-06)
(7.66177e-07 -1.02641e-07 -9.11318e-06)
(8.83862e-07 -8.75249e-07 -9.36224e-06)
(1.53967e-06 -9.00689e-07 -8.55262e-06)
(6.70184e-07 -1.95263e-06 -1.22838e-05)
(-1.03757e-06 -7.88086e-07 -8.50608e-06)
(1.22451e-06 1.08713e-06 -5.67491e-06)
(1.37999e-07 -8.02371e-07 -6.42021e-06)
(1.32672e-06 -5.82294e-07 -8.38964e-06)
(-1.67394e-08 -1.79152e-06 -1.2415e-05)
(-1.34211e-06 -5.41504e-07 -8.34131e-06)
(1.80073e-06 1.0143e-06 -5.84061e-06)
(-8.83718e-09 2.61215e-07 -7.33647e-06)
(-2.76799e-07 -1.70297e-07 -4.27189e-06)
(-1.80465e-06 1.08941e-06 -5.80635e-06)
(-3.75581e-09 -2.71778e-07 -5.22458e-06)
(-2.07138e-07 -3.51977e-07 -5.40467e-06)
(9.75606e-09 -5.76452e-08 -1.39002e-06)
(3.84971e-09 -1.3719e-08 -3.30542e-07)
(5.47674e-10 -2.66621e-09 -6.02427e-08)
(5.38537e-11 -3.87774e-10 -8.71855e-09)
(3.58893e-12 -4.4292e-11 -1.0405e-09)
(7.62704e-14 -4.19085e-12 -1.05541e-10)
(-2.82749e-14 -3.66317e-13 -9.27437e-12)
(-3.3133e-14 9.72826e-14 -7.21196e-12)
(1.47442e-12 -5.07155e-13 -4.99837e-12)
(-1.768e-12 -4.51198e-13 -5.1712e-12)
(1.58924e-12 -3.51652e-13 -5.23011e-12)
(-1.84712e-12 -8.52409e-13 -5.53838e-12)
(4.79046e-12 5.32471e-12 -1.86277e-11)
(-2.13076e-11 -1.13265e-11 -6.57693e-11)
(5.606e-11 5.657e-11 -2.0544e-10)
(-2.16062e-10 -1.28823e-10 -6.75873e-10)
(5.60911e-10 5.22696e-10 -1.97353e-09)
(-1.89143e-09 -1.24129e-09 -5.95896e-09)
(4.74989e-09 4.11697e-09 -1.60698e-08)
(-1.3927e-08 -9.97633e-09 -4.39656e-08)
(3.31176e-08 2.69091e-08 -1.07634e-07)
(-8.31311e-08 -6.48401e-08 -2.62014e-07)
(1.81684e-07 1.40894e-07 -5.66689e-07)
(-3.76857e-07 -3.20238e-07 -1.20192e-06)
(7.66612e-09 -3.00968e-08 -1.35198e-06)
(3.18309e-07 -3.15128e-07 -1.18562e-06)
(3.1138e-07 3.77032e-07 -1.19832e-06)
(2.14733e-07 -4.02014e-07 -1.1558e-06)
(-1.01209e-07 2.09054e-07 -5.6439e-07)
(1.26826e-08 -5.17329e-13 -3.14542e-07)
(-1.01192e-07 -2.09054e-07 -5.64396e-07)
(4.24585e-08 8.77354e-08 -2.54406e-07)
(6.23679e-08 -8.2839e-08 -2.61685e-07)
(6.37236e-08 6.31388e-08 -2.59831e-07)
(-2.84648e-08 -2.78309e-08 -1.0803e-07)
(-2.64049e-08 3.36636e-08 -1.08173e-07)
(2.07859e-09 3.75517e-11 -5.52793e-08)
(9.83662e-09 9.79369e-09 -4.37367e-08)
(-3.60149e-11 2.31925e-09 -5.5073e-08)
(3.31225e-08 -2.69079e-08 -1.0764e-07)
(-3.27811e-09 -1.20675e-08 -1.29298e-07)
(-3.97777e-08 -1.83165e-08 -1.07284e-07)
(3.74725e-08 -2.05842e-08 -1.05725e-07)
(-3.22654e-10 2.10365e-09 -5.46955e-08)
(-1.47058e-08 6.88471e-09 -4.25658e-08)
(1.33993e-08 7.46375e-09 -4.22237e-08)
(-3.54e-08 -2.3032e-08 -1.06117e-07)
(3.98637e-10 -1.24849e-08 -1.28095e-07)
(-8.90159e-08 4.56881e-08 -2.54475e-07)
(-9.07798e-10 1.24517e-08 -3.12192e-07)
(2.03912e-07 -1.0648e-07 -5.5732e-07)
(-4.061e-07 2.26991e-07 -1.16207e-06)
(-9.52326e-10 2.96776e-08 -1.33988e-06)
(-8.3989e-07 -3.83794e-07 -2.19286e-06)
(-5.69145e-08 -1.17094e-07 -2.44235e-06)
(4.63469e-07 -1.37003e-07 -3.24777e-06)
(-4.48746e-08 -7.44664e-07 -6.91575e-06)
(1.38033e-07 8.02356e-07 -6.42022e-06)
(-1.80466e-06 -1.08943e-06 -5.80629e-06)
(-2.76785e-07 1.7029e-07 -4.27187e-06)
(3.36262e-08 3.6263e-08 -5.30087e-06)
(-3.59368e-08 -3.58869e-08 -2.5901e-06)
(-4.31789e-09 -1.15811e-12 -1.40741e-06)
(-3.25858e-09 -3.92954e-08 -1.35972e-06)
(-1.35127e-09 -9.33705e-09 -3.26085e-07)
(-4.21617e-10 -1.94143e-09 -5.96802e-08)
(-9.44497e-11 -3.01983e-10 -8.69259e-09)
(-1.59351e-11 -3.6615e-11 -1.04611e-09)
(-2.14667e-12 -3.66067e-12 -1.07215e-10)
(-2.44437e-13 -3.19853e-13 -9.58936e-12)
(-2.30522e-14 3.70002e-15 -9.00383e-13)
(-6.19845e-15 9.08853e-15 -2.18482e-13)
(-1.09998e-14 1.76784e-14 -2.08538e-13)
(-3.56656e-15 4.43005e-14 -7.05663e-13)
(-1.38031e-14 -3.5828e-15 -1.77733e-13)
(3.36084e-14 -6.56293e-15 -1.79836e-13)
(1.85433e-15 1.29426e-13 -3.02359e-13)
(6.9923e-15 8.69605e-14 -8.07424e-13)
(-3.00377e-13 2.83683e-13 -1.27964e-12)
(3.03785e-13 2.32429e-13 -1.32347e-12)
(-3.83618e-13 2.36112e-13 -1.38268e-12)
(2.48256e-13 2.97321e-13 -1.38688e-12)
(-2.92325e-13 2.62061e-13 -1.26598e-12)
(1.64161e-13 -3.12971e-14 -4.66491e-13)
(-3.52123e-13 -3.14247e-13 -1.62719e-12)
(8.22313e-13 1.85762e-12 -5.95559e-12)
(-6.049e-14 2.47888e-13 -8.3768e-12)
(-5.68147e-12 -5.36055e-12 -1.99521e-11)
(-5.73897e-12 5.59266e-12 -1.91944e-11)
(9.9408e-13 -9.629e-13 -5.64996e-12)
(-3.19078e-13 -8.39265e-14 -7.96897e-12)
(3.48223e-13 -1.55782e-12 -1.26674e-11)
(1.59589e-15 -2.19525e-14 -1.19654e-12)
(-1.81128e-14 -3.27149e-15 -1.15596e-12)
(-3.12649e-14 -1.14858e-14 -1.06613e-12)
(-2.43592e-14 -2.19887e-14 -6.24608e-13)
(4.7862e-14 9.03572e-14 -1.32343e-12)
(-4.29858e-13 1.48855e-13 -1.36804e-11)
(-9.82187e-13 -6.53059e-13 -9.00106e-12)
(2.58701e-13 3.8421e-13 -3.20954e-12)
(-5.52852e-13 -1.36137e-12 -1.16589e-11)
(-6.66093e-12 -1.81321e-11 -1.3089e-10)
(-1.14092e-11 -9.60121e-12 -1.06342e-10)
(-5.18351e-12 -6.22275e-13 -1.4514e-10)
(-5.54763e-11 -2.04654e-11 -1.35505e-09)
(-1.08877e-10 -9.97995e-11 -1.05839e-09)
(1.65356e-11 2.86158e-11 -4.09629e-10)
(2.01173e-12 3.42059e-12 -3.90516e-11)
(4.17269e-13 5.45386e-12 -3.69468e-11)
(-5.45711e-12 4.67964e-12 -1.74162e-11)
(5.67636e-12 4.16205e-12 -1.7731e-11)
(-2.09095e-11 -6.748e-12 -6.16522e-11)
(1.91785e-11 -5.23404e-12 -6.19593e-11)
(-1.37797e-12 3.84502e-12 -2.48897e-11)
(-6.68331e-12 4.00665e-12 -1.83801e-11)
(-1.92889e-13 7.08959e-14 -7.57874e-12)
(-1.54208e-13 -1.20574e-12 -1.21154e-11)
(-1.14084e-12 -1.70744e-11 -1.33397e-10)
(-6.72856e-12 -1.80001e-10 -1.28672e-09)
(-6.19031e-11 -1.87302e-10 -1.26935e-09)
(-4.82955e-10 -1.59671e-09 -1.04075e-08)
(-8.71895e-10 -8.37891e-10 -8.92365e-09)
(-5.10578e-10 -2.67239e-10 -1.08122e-08)
(-3.82327e-09 -2.38265e-09 -7.15781e-08)
(-5.759e-09 -5.80628e-09 -6.25954e-08)
(6.26645e-10 1.07663e-09 -2.74914e-08)
(1.15988e-10 1.98526e-10 -3.66105e-09)
(4.67363e-11 3.4501e-10 -3.49598e-09)
(-6.21914e-10 4.48676e-10 -1.90801e-09)
(6.48092e-10 4.06759e-10 -1.91353e-09)
(-1.9581e-09 -8.2982e-10 -5.72506e-09)
(1.87036e-09 -6.76552e-10 -5.70919e-09)
(-9.65096e-11 3.15501e-10 -2.53568e-09)
(-7.20184e-10 3.69436e-10 -1.95814e-09)
(2.04446e-10 -6.53947e-11 -6.42346e-10)
(-1.25733e-11 3.76236e-11 -2.70111e-10)
(-7.4806e-11 4.1076e-11 -2.03009e-10)
(-1.72656e-12 -5.87994e-13 -8.69558e-11)
(6.5516e-11 4.42533e-11 -1.97194e-10)
(-2.18288e-10 -8.22716e-11 -6.42093e-10)
(-1.37941e-12 3.89734e-11 -2.61295e-10)
(-6.31571e-11 4.89314e-11 -1.95715e-10)
(1.80893e-11 -7.31751e-12 -6.04615e-11)
(-1.91143e-13 3.96618e-12 -2.37689e-11)
(-7.06261e-13 8.86526e-13 -3.23978e-11)
(-1.14034e-12 -5.99195e-13 -3.21713e-11)
(-3.93077e-12 -2.71123e-12 -1.81557e-11)
(3.14444e-13 5.5186e-13 -5.68284e-12)
(1.52834e-12 1.41232e-12 -5.36061e-12)
(1.00014e-13 1.19102e-13 -1.63633e-12)
(-3.50527e-13 -1.91469e-13 -1.37181e-12)
(-9.11043e-15 -7.45301e-15 -3.5774e-13)
(3.61333e-13 3.44455e-14 -1.76149e-12)
(-8.8574e-14 -2.13467e-14 -2.63117e-12)
(-7.40261e-14 9.65785e-14 -2.68939e-12)
(-3.30179e-14 3.6932e-13 -1.9852e-12)
(3.35602e-14 6.06243e-13 -3.19955e-12)
(-1.89781e-13 5.97572e-13 -3.34129e-12)
(-2.66025e-14 8.73875e-14 -8.65345e-13)
(-3.93024e-13 3.18249e-13 -3.64889e-12)
(2.78853e-14 -3.16565e-14 -7.57597e-13)
(8.70032e-14 -5.42097e-15 -1.2926e-12)
(1.79238e-12 -4.75536e-13 -1.40068e-11)
(7.92154e-13 -8.31308e-13 -1.01204e-11)
(-3.16163e-12 2.69874e-12 -4.31716e-11)
(-1.96875e-12 5.32366e-12 -3.81759e-11)
(5.44761e-12 -1.99091e-11 -1.3929e-10)
(5.81394e-11 -2.01641e-10 -1.33271e-09)
(5.07549e-10 -1.69414e-09 -1.08268e-08)
(-2.50284e-11 -1.55576e-09 -1.05221e-08)
(4.83036e-12 -1.11719e-08 -7.15257e-08)
(-3.15503e-09 -1.12512e-08 -7.08284e-08)
(-1.73337e-08 -6.41996e-08 -3.88224e-07)
(-3.10029e-08 -3.32935e-08 -3.54461e-07)
(-2.22417e-08 -1.55802e-08 -3.79113e-07)
(-1.04533e-07 -8.7268e-08 -1.51937e-06)
(-1.49688e-07 -1.64802e-07 -1.55848e-06)
(-2.07254e-09 8.00189e-09 -8.16981e-07)
(2.082e-09 4.10138e-09 -1.69015e-07)
(2.43068e-09 9.24428e-09 -1.64333e-07)
(-3.53979e-08 2.30303e-08 -1.06109e-07)
(3.74683e-08 2.05848e-08 -1.05717e-07)
(-8.9015e-08 -4.56824e-08 -2.54464e-07)
(8.78608e-08 -3.92989e-08 -2.52605e-07)
(-3.28088e-09 1.20678e-08 -1.29296e-07)
(-3.9774e-08 1.83162e-08 -1.07279e-07)
(1.43024e-08 -5.75477e-09 -4.23487e-08)
(-6.18373e-10 2.19182e-09 -2.00633e-08)
(-5.88393e-09 2.84574e-09 -1.59889e-08)
(-7.49543e-11 -2.26362e-10 -7.63201e-09)
(5.42765e-09 3.17874e-09 -1.57051e-08)
(-1.47054e-08 -6.88377e-09 -4.25628e-08)
(1.15178e-11 2.27549e-09 -1.97687e-08)
(-5.17363e-09 3.52078e-09 -1.57115e-08)
(1.75679e-09 -8.90174e-10 -5.65997e-09)
(-5.77492e-12 3.27531e-10 -2.47858e-09)
(-3.21178e-11 6.5536e-11 -3.16044e-09)
(-5.49852e-12 8.21941e-12 -3.44642e-10)
(-1.16872e-11 -7.76815e-12 -3.42196e-10)
(-4.421e-11 -3.33026e-11 -2.03718e-10)
(2.09225e-12 5.30345e-12 -6.71983e-11)
(1.79164e-11 1.60854e-11 -6.26198e-11)
(5.40949e-13 1.87936e-12 -1.9967e-11)
(2.53934e-12 4.37936e-13 -2.04624e-11)
(-1.55689e-11 -1.13314e-11 -6.25989e-11)
(6.38066e-11 5.36923e-11 -2.09057e-10)
(-1.63684e-10 -1.22346e-10 -6.42466e-10)
(-1.63718e-10 1.22353e-10 -6.42498e-10)
(3.58997e-11 -2.96533e-11 -6.80006e-10)
(5.95824e-10 -5.07938e-10 -2.00193e-09)
(1.31104e-10 -1.47429e-11 -2.09419e-09)
(-1.52223e-09 1.14498e-09 -5.7355e-09)
(2.22347e-10 -2.18039e-10 -5.91067e-09)
(4.75239e-09 -4.11804e-09 -1.63704e-08)
(7.15656e-10 -1.04254e-11 -1.6698e-08)
(-1.18423e-08 8.97017e-09 -4.28939e-08)
(1.01987e-09 -1.30488e-09 -4.26572e-08)
(3.14146e-08 -2.74277e-08 -1.09819e-07)
(2.38326e-09 4.10894e-10 -1.0818e-07)
(-7.267e-08 5.65581e-08 -2.5786e-07)
(3.58576e-09 -7.01891e-09 -2.44843e-07)
(1.6676e-07 -1.42699e-07 -5.7592e-07)
(-3.13503e-09 2.02618e-09 -5.42716e-07)
(-3.24433e-07 2.72487e-07 -1.18615e-06)
(1.66911e-08 -4.76308e-08 -1.05901e-06)
(6.985e-07 -5.32974e-07 -2.18775e-06)
(-1.22569e-07 -6.22633e-08 -2.01441e-06)
(-8.78481e-07 8.8093e-07 -3.97499e-06)
(-1.35566e-07 -1.88727e-11 -3.78374e-06)
(-8.78448e-07 -8.80921e-07 -3.97495e-06)
(2.63247e-07 6.08589e-07 -3.28011e-06)
(1.4962e-06 1.03895e-06 -4.09338e-06)
(-4.854e-08 1.32278e-07 -2.13784e-06)
(-5.83208e-07 -5.63659e-07 -2.42869e-06)
(-1.35584e-08 -1.49477e-09 -1.08594e-06)
(3.4871e-07 2.7321e-07 -1.23713e-06)
(-2.37438e-09 2.57823e-08 -5.41922e-07)
(-1.49103e-07 -1.31514e-07 -5.97387e-07)
(-1.84992e-09 3.66447e-09 -2.50456e-07)
(7.15201e-08 5.97978e-08 -2.68021e-07)
(-3.26718e-10 5.67344e-09 -1.07498e-07)
(-2.71699e-08 -2.2837e-08 -1.11795e-07)
(2.75435e-11 1.2521e-09 -4.35148e-08)
(1.1838e-08 1.01324e-08 -4.42935e-08)
(3.8612e-11 1.05808e-09 -1.6551e-08)
(-3.85178e-09 -3.13199e-09 -1.64506e-08)
(5.22426e-11 2.65795e-10 -6.01518e-09)
(1.60254e-09 1.39091e-09 -5.88711e-09)
(1.83962e-11 1.60319e-10 -2.07293e-09)
(-4.46738e-10 -3.51843e-10 -1.98663e-09)
(1.23181e-11 4.20041e-11 -6.88656e-10)
(1.82514e-10 1.60667e-10 -6.54009e-10)
(3.69191e-12 1.95292e-11 -2.1872e-10)
(1.90745e-11 3.20458e-12 -2.21667e-10)
(-1.02679e-11 -1.34977e-11 -4.651e-10)
(-1.13427e-12 -1.02542e-12 -4.82015e-11)
(-1.45409e-13 -3.2569e-14 -4.80732e-12)
(2.96635e-14 3.7528e-14 -6.39197e-13)
(-1.97258e-14 -1.08568e-14 -3.98202e-13)
(-2.81464e-13 -9.2528e-15 -1.66761e-12)
(-2.80536e-12 -5.60436e-15 -1.47626e-11)
(-2.66431e-11 -6.25248e-16 -1.43414e-10)
(-2.34568e-10 8.89156e-15 -1.2998e-09)
(-1.78338e-09 2.61956e-13 -1.02495e-08)
(-1.07635e-08 2.43886e-12 -6.69444e-08)
(-4.5972e-08 3.59546e-11 -3.4525e-07)
(-1.1542e-07 -4.39613e-12 -1.32456e-06)
(-1.21523e-07 -1.251e-11 -3.41943e-06)
(-2.07016e-07 -8.61429e-11 -5.66578e-06)
(-1.11001e-06 4.94299e-07 -5.11644e-06)
(-1.11001e-06 -4.9435e-07 -5.11641e-06)
(-1.10669e-06 -6.6136e-07 -4.1237e-06)
(-9.3726e-07 -7.55988e-07 -5.53723e-06)
(-1.97537e-07 -8.60679e-08 -2.92478e-06)
(-9.54229e-08 -2.91313e-07 -1.63517e-06)
(-5.29386e-07 -1.30336e-06 -5.0128e-06)
(6.33452e-07 2.66835e-06 -3.79465e-06)
(6.8739e-07 1.5583e-08 -3.34602e-06)
(3.65349e-08 1.19861e-07 -2.43092e-06)
(2.33231e-08 1.40109e-08 -2.48485e-06)
(6.77703e-09 -5.10621e-08 -2.47859e-06)
(-1.22543e-07 6.22613e-08 -2.01437e-06)
(6.98446e-07 5.32997e-07 -2.1877e-06)
(1.67037e-08 4.76069e-08 -1.05897e-06)
(-3.2443e-07 -2.72475e-07 -1.18613e-06)
(-5.44336e-08 -5.64398e-12 -1.22856e-06)
(-7.0976e-08 -4.30477e-12 -1.37407e-06)
(-2.12398e-08 -3.10573e-12 -3.31526e-07)
(3.59204e-09 7.01672e-09 -2.44831e-07)
(-7.26659e-08 -5.65575e-08 -2.57856e-07)
(1.66743e-07 1.42694e-07 -5.75893e-07)
(-3.13926e-09 -2.02933e-09 -5.42715e-07)
(-1.22674e-08 -1.94137e-08 -7.23459e-07)
(-3.74573e-09 -4.19602e-09 -1.50093e-07)
(2.38222e-09 -4.12787e-10 -1.08177e-07)
(3.1408e-08 2.7427e-08 -1.09813e-07)
(1.02055e-09 1.30389e-09 -4.26555e-08)
(-1.18411e-08 -8.97034e-09 -4.28939e-08)
(-8.64494e-10 -2.00047e-13 -5.03335e-08)
(-4.14801e-09 1.25248e-13 -6.05386e-08)
(-6.05411e-10 -6.77782e-14 -8.75403e-09)
(-6.96192e-11 -1.67538e-14 -1.04381e-09)
(3.59109e-11 2.96085e-11 -6.79965e-10)
(5.95759e-10 5.07902e-10 -2.00179e-09)
(-1.52215e-09 -1.14494e-09 -5.73544e-09)
(4.7519e-09 4.11801e-09 -1.63695e-08)
(7.15755e-10 1.03618e-11 -1.6697e-08)
(-7.14344e-10 -6.60453e-10 -2.4122e-08)
(-1.01918e-10 -8.02605e-11 -3.13729e-09)
(-5.85943e-12 -1.28364e-14 -1.03153e-09)
(-9.81121e-13 -4.63609e-15 -1.03878e-10)
(-1.18214e-13 -1.86193e-15 -9.18298e-12)
(-4.91203e-13 -3.20115e-15 -9.51912e-12)
(4.71243e-13 1.84406e-13 -5.97164e-12)
(6.0138e-12 5.07998e-12 -1.94965e-11)
(6.68782e-13 -7.66389e-15 -7.63413e-12)
(6.01069e-12 -5.08589e-12 -1.94989e-11)
(2.53202e-12 -4.44163e-13 -2.04561e-11)
(-1.55663e-11 1.13253e-11 -6.2589e-11)
(4.56533e-12 -3.10887e-12 -6.73722e-11)
(6.38091e-11 -5.36965e-11 -2.09073e-10)
(1.90483e-11 -3.21463e-12 -2.21682e-10)
(-1.16885e-11 7.75587e-12 -3.42203e-10)
(-6.48999e-12 -1.10333e-15 -1.06209e-10)
(4.57194e-12 3.10105e-12 -6.7364e-11)
(3.44394e-12 7.64182e-18 -8.26084e-11)
(-1.13864e-12 5.96727e-13 -3.21741e-11)
(-8.55477e-14 1.70858e-14 -2.63396e-12)
(-3.47619e-13 1.88968e-13 -1.37144e-12)
(1.05338e-13 -1.11061e-13 -1.64331e-12)
(1.5306e-12 -1.41524e-12 -5.36101e-12)
(3.64999e-13 -3.29873e-14 -1.75688e-12)
(5.05107e-13 -4.68414e-13 -1.80383e-12)
(3.24411e-14 2.03364e-14 -5.03061e-13)
(-1.44398e-13 6.263e-14 -4.38298e-13)
(1.32345e-13 -6.16792e-15 -7.71723e-13)
(3.59685e-14 -4.28559e-14 -1.86829e-13)
(4.5591e-14 1.53017e-15 -1.37812e-13)
(4.06019e-14 -6.80491e-14 -2.32206e-13)
(9.91251e-14 -2.27163e-14 -2.56647e-13)
(8.36516e-14 -5.25512e-14 -4.38993e-13)
(4.2648e-14 -1.48312e-14 -2.23152e-13)
(4.70157e-15 -1.08365e-14 -1.27562e-13)
(9.09756e-15 -7.43771e-15 -1.34534e-13)
(2.30973e-16 1.62312e-15 -8.24731e-14)
(-2.41024e-15 3.83269e-15 -8.98624e-14)
(1.01224e-14 -1.22391e-14 -9.23576e-14)
(-9.07293e-15 2.23653e-15 -8.50516e-14)
(3.11964e-16 -1.66649e-14 -1.27607e-13)
(-1.50784e-15 1.46179e-15 -9.98932e-14)
(-3.81652e-15 1.48524e-17 -8.31008e-14)
(-1.35366e-15 1.86209e-15 -8.65293e-14)
(-4.45227e-15 1.47489e-15 -8.75837e-14)
(1.70313e-15 2.6709e-14 -1.7658e-13)
(5.297e-16 1.98088e-14 -1.36735e-13)
(-1.75398e-15 5.07431e-15 -1.52326e-13)
(6.35541e-15 5.50488e-15 -1.31363e-13)
(4.09247e-15 2.74332e-15 -1.67016e-13)
(8.61516e-15 9.72143e-15 -1.20943e-13)
(3.85666e-14 1.44289e-14 -2.04634e-13)
(-6.27285e-15 2.91228e-15 -1.64183e-13)
(-1.2741e-16 -1.54843e-15 -9.73177e-14)
(7.23885e-16 -3.31256e-15 -1.09351e-13)
(-4.35774e-15 1.81733e-14 -1.40163e-13)
(-1.985e-14 1.67784e-14 -1.43147e-13)
(-2.14857e-15 2.01262e-16 -1.1608e-13)
(-2.01454e-14 8.46428e-15 -1.66063e-13)
(3.76142e-15 3.97004e-14 -2.10239e-13)
(4.12098e-14 -1.36783e-14 -2.42632e-13)
(-1.0844e-13 9.0249e-14 -3.20946e-13)
(-5.67708e-14 6.7699e-14 -7.96693e-13)
(-1.2646e-15 -1.24739e-15 -9.85531e-14)
(-1.07941e-14 7.35839e-15 -2.39709e-13)
(-1.86398e-14 3.52168e-15 -1.06193e-12)
(-3.51687e-14 1.37358e-15 -1.01321e-12)
(-1.31229e-14 3.63715e-15 -2.30267e-13)
(-3.02392e-13 4.27035e-15 -9.80537e-12)
(-2.67653e-12 2.38878e-15 -1.08967e-10)
(-1.97918e-11 -3.2262e-15 -1.06697e-09)
(-1.1613e-10 -1.33799e-14 -8.91141e-09)
(-1.44759e-11 9.28438e-15 -8.726e-09)
(1.53128e-10 2.59878e-13 -6.09108e-08)
(2.22937e-09 1.39671e-12 -3.37219e-07)
(1.27051e-08 -2.96605e-12 -1.40915e-06)
(-7.10654e-08 -3.56905e-12 -4.76598e-06)
(-4.76612e-07 4.5248e-12 -4.63425e-06)
(1.40421e-06 -4.631e-11 -9.32869e-06)
(-1.726e-07 -8.22944e-07 -5.11497e-06)
(7.42491e-07 5.51566e-07 -6.55135e-06)