/*--------------------------------*- C++ -*----------------------------------*\
| =========                 |                                                 |
| \\      /  F ield         | OpenFOAM: The Open Source CFD Toolbox           |
|  \\    /   O peration     | Version:  2306                                  |
|   \\  /    A nd           | Website:  www.openfoam.com                      |
|    \\/     M anipulation  |                                                 |
\*---------------------------------------------------------------------------*/
FoamFile
{
    version     2.0;
    format      ascii;
    arch        "LSB;label=32;scalar=64";
    class       volScalarField;
    location    "0.2";
    object      gradTx;
}
// * * * * * * * * * * * * * * * * * * * * * * * * * * * * * * * * * * * * * //

dimensions      [0 -1 0 1 0 0 0];

internalField   nonuniform List<scalar> 
2658
(
0.00732581
0.0113175
0.00258045
0.000256844
-0.00543099
-0.00450012
0.00266174
0.00272058
6.54056e-05
0.00642149
-0.00615172
-0.00649667
0.00644084
0.00647716
0.00459486
0.000398068
-0.000128951
-0.000599329
-0.00476643
-0.00689692
-0.00760149
-0.0175002
-0.0190905
0.0123296
-0.00464343
-0.00844929
-0.0178851
-0.00196715
-0.0130316
-0.0151884
-0.0130314
-0.0178854
-0.00844969
-0.0190912
-0.004643
0.0123293
-0.00284275
0.00272112
-0.0174986
-0.00760359
-0.00689704
-0.00476633
-0.00060051
0.000605623
-0.0041811
0.00396124
-0.00615159
-0.000383522
0.000396506
0.00459499
0.00647739
0.00644075
0.0167589
-0.00279092
0.017733
0.0151553
-0.00642173
-0.00109904
-0.0201487
0.0150045
-0.00642141
0.0151556
0.017733
-0.00279046
0.00058223
-0.0226556
0.000524125
-0.00102071
-0.00338621
-0.00338655
0.000262928
0.00183499
-0.000436211
-0.0011751
0.000106614
-0.00128439
0.00155296
5.84265e-06
-0.000710581
0.000750964
-0.00182056
-0.000124538
0.00345979
-0.00322114
0.000137306
5.5905e-06
1.35189e-06
1.04996e-07
-2.14425e-08
-7.30254e-09
-1.10878e-09
-3.43372e-10
-1.12895e-10
-5.51867e-10
1.68167e-10
-1.9174e-10
-2.65218e-10
2.68834e-11
2.22361e-10
-2.30888e-10
2.75612e-11
2.53556e-10
6.19606e-10
8.68382e-11
1.77771e-10
-3.64225e-10
7.46105e-11
8.64865e-11
8.60278e-11
1.43427e-10
1.91006e-10
8.50423e-11
6.84813e-11
7.62081e-11
1.9079e-10
1.68588e-10
1.44947e-10
-3.27175e-10
6.27025e-10
8.18067e-11
2.99885e-10
8.68493e-11
-1.95567e-10
2.19045e-10
-5.7337e-10
4.6991e-10
-5.72211e-10
-1.70083e-10
-2.48443e-10
2.13926e-10
-1.32415e-11
-3.2932e-10
-1.79862e-10
-2.42106e-10
-1.44665e-10
-2.31214e-10
-4.54542e-10
-1.60439e-09
2.55296e-10
2.32725e-10
-3.84952e-10
-2.47158e-10
-8.77143e-11
-1.93646e-10
-2.39008e-10
-1.97611e-10
-2.15718e-10
-5.21011e-10
-4.04866e-10
-4.41099e-10
-3.2397e-10
-4.39277e-10
-3.38864e-10
-4.00688e-10
-5.87397e-10
-8.42514e-10
-5.30607e-10
-3.19605e-10
-2.99183e-10
-3.44132e-10
6.33844e-11
8.37213e-12
-1.30646e-10
2.08898e-10
3.54822e-10
1.86974e-10
3.55457e-10
7.98646e-10
2.16231e-10
2.74726e-09
-1.0622e-08
4.94325e-08
-1.28609e-07
5.54285e-07
-1.38207e-06
5.35452e-06
-1.2785e-05
4.39136e-05
-9.91062e-05
0.000297876
-0.000621144
0.00161293
-0.00301377
0.00672642
-0.00657527
0.00698478
-0.0071785
0.00642131
-0.00543119
0.000256849
-0.00449979
0.000523802
-0.0226552
0.000582294
-0.00649681
0.00348038
0.000137307
5.59598e-06
1.34511e-06
1.03774e-07
-2.15262e-08
-7.2977e-09
-1.04269e-09
-3.3708e-10
-1.03268e-10
-6.23221e-11
-3.17102e-10
-1.62647e-10
7.00751e-12
1.42142e-11
-2.57943e-10
-2.63231e-12
-2.42791e-10
-2.77783e-11
5.3197e-10
-5.736e-10
2.56227e-11
3.30874e-10
-3.9464e-12
-1.26616e-10
-1.58643e-10
2.59226e-11
-1.92486e-10
-3.3688e-11
-1.08392e-10
-5.12923e-11
-8.84079e-11
-3.64391e-11
-2.12914e-10
5.66609e-11
2.63442e-11
-1.71563e-11
-1.73231e-10
1.30022e-11
7.69778e-11
-2.46198e-10
-2.18996e-10
-3.09953e-11
6.69784e-11
-2.03772e-11
8.94003e-12
-1.42615e-11
2.61536e-11
8.04417e-11
1.80602e-11
1.52425e-11
1.10935e-11
-1.3845e-10
3.05604e-10
6.83377e-10
3.38467e-10
4.53587e-10
3.0119e-10
-1.26221e-09
4.31015e-09
-1.22923e-08
-1.22471e-08
4.04499e-09
-3.35284e-08
4.75418e-09
1.53188e-07
-3.77972e-07
3.15355e-08
1.56012e-06
-3.81876e-06
1.56817e-07
1.36983e-05
-3.29248e-05
3.2793e-07
0.000101178
-0.00023227
-2.80133e-06
0.000611285
-0.00127441
-2.02936e-05
0.00298065
-0.00498517
-0.000414951
0.0127881
0.00225006
0.0194826
0.0194824
-0.00196673
0.00634599
-0.00147531
0.00734832
0.000691235
-0.00396562
-0.00396569
0.00490296
-9.10407e-05
-0.00535989
-0.0053599
0.00147666
-0.00218287
-0.00922441
-0.00922449
0.00474808
0.0153592
0.00474809
0.00679476
0.0169543
0.00779987
0.00989733
0.0094928
-0.0163751
-0.00939021
0.00684391
0.00654841
-0.000206133
0.00147664
-0.00098868
-0.00290801
0.0104662
-0.00886794
0.00572903
0.0131609
0.00755349
-0.0043709
-0.00567179
-0.00437072
-0.00290816
-0.00938997
-0.016375
0.00780001
0.0169548
0.00679519
0.00684399
0.00654852
0.00755437
0.0131595
0.00572806
-0.00886809
0.0104659
0.00117948
0.0113395
-0.000143072
-0.0114711
0.0153909
-7.55315e-05
-0.0023658
-0.0154244
-3.21009e-05
-0.00177041
8.33851e-05
3.29035e-05
4.68098e-06
4.60288e-07
3.06746e-08
6.51883e-10
-2.41666e-10
-2.83188e-10
1.26019e-08
-1.51111e-08
1.35832e-08
-1.57873e-08
4.09441e-08
-1.82116e-07
4.79145e-07
-1.84668e-06
4.79411e-06
-1.6166e-05
4.05974e-05
-0.000119034
0.000283057
-0.000710523
0.00155286
-0.003221
6.55224e-05
0.00272059
0.00266137
0.00183532
-0.000865033
0.000108398
-0.000864888
0.000362893
0.000533059
0.000544647
-0.000243289
-0.000225683
1.77657e-05
8.40737e-05
-3.0782e-07
0.000283098
-2.80181e-05
-0.000339981
0.000320278
-2.75773e-06
-0.000125691
0.000114524
-0.000302564
3.40715e-06
-0.000760819
-7.75895e-06
0.00174284
-0.00347094
-8.13954e-06
-0.00717855
-0.000486449
0.00396127
-0.000383544
0.00117977
-0.0154245
-0.00236569
0.000287403
-0.000307152
-3.69051e-05
-2.78511e-05
-1.15493e-05
-3.60356e-06
-8.07263e-07
-1.36197e-07
-1.83476e-08
-2.08921e-09
-1.97027e-10
-5.29782e-11
-9.40153e-11
-3.04834e-11
-1.17975e-10
2.87251e-10
1.5849e-11
5.97632e-11
-2.56732e-09
2.59645e-09
-3.27879e-09
2.12184e-09
-2.4985e-09
1.40309e-09
-3.0096e-09
7.02831e-09
-5.17009e-10
-4.85595e-08
-4.9051e-08
8.49641e-09
-2.72716e-09
2.97627e-09
1.36401e-11
-1.5481e-10
-2.67221e-10
-2.08198e-10
4.09077e-10
-3.674e-09
-8.39476e-09
2.21112e-09
-4.72523e-09
-5.69311e-08
-9.75145e-08
-4.43035e-08
-4.74157e-07
-9.30569e-07
1.4133e-07
1.71943e-08
3.5664e-09
-4.6642e-08
4.85159e-08
-1.78714e-07
1.63919e-07
-1.17775e-08
-5.71223e-08
-1.64863e-09
-1.31802e-09
-9.7508e-09
-5.75091e-08
-5.29086e-07
-4.12782e-06
-7.45209e-06
-4.36391e-06
-3.26775e-05
-4.92222e-05
5.35594e-06
9.91349e-07
3.99456e-07
-5.31551e-06
5.53925e-06
-1.67359e-05
1.5986e-05
-8.24868e-07
-6.15542e-06
1.7474e-06
-1.07464e-07
-6.39367e-07
-1.47569e-08
5.59966e-07
-1.86571e-06
-1.17898e-08
-5.39805e-07
1.54609e-07
-1.6337e-09
-6.03641e-09
-9.74652e-09
-3.35963e-08
2.68755e-09
1.30627e-08
8.54823e-10
-2.99596e-09
-7.78669e-11
3.08831e-09
-7.57043e-10
-6.32701e-10
-2.82204e-10
2.8684e-10
-1.62206e-09
-2.27372e-10
-3.35918e-09
2.38336e-10
7.43617e-10
1.53195e-08
6.77055e-09
-2.70225e-08
-1.68269e-08
4.65608e-08
4.96918e-07
4.33803e-06
-2.13918e-07
4.12852e-08
-2.69661e-05
-0.000148151
-0.000264982
-0.0001901
-0.000893445
-0.00127938
-1.7714e-05
1.77949e-05
2.07751e-05
-0.000302546
0.000320242
-0.000760812
0.000750947
-2.80417e-05
-0.000339949
0.000122243
-5.28524e-06
-5.029e-05
-6.40635e-07
4.63901e-05
-0.000125687
9.8443e-08
-4.42191e-05
1.50153e-05
-4.93583e-08
-2.74512e-07
-4.69959e-08
-9.98905e-08
-3.77863e-07
1.78825e-08
1.53131e-07
4.6235e-09
2.17038e-08
-1.33068e-07
5.45355e-07
-1.39901e-06
-1.3993e-06
3.06835e-07
5.09251e-06
1.12055e-06
-1.30105e-05
1.9004e-06
4.06187e-05
6.11672e-06
-0.000101216
8.71687e-06
0.000268501
2.03697e-05
-0.000621111
3.06475e-05
0.0014253
-2.67951e-05
-0.00277293
0.000142659
0.00597009
-0.0010476
-0.00750838
-0.00115869
-0.00750811
0.00224998
0.012788
-0.000414872
-0.00498469
-0.000115884
0.00298042
-2.02939e-05
-0.00127438
-1.58112e-05
0.000611283
-2.79246e-06
-0.000232221
2.35414e-07
0.00010118
3.30017e-07
-3.29212e-05
4.46518e-07
1.36969e-05
1.57232e-07
-3.81828e-06
1.05283e-07
1.55995e-06
3.15547e-08
1.6303e-07
-8.776e-08
-9.69459e-09
-1.24281e-09
2.53534e-10
-1.68596e-10
-2.40567e-09
-2.39775e-08
-2.27719e-07
-2.00485e-06
-1.52426e-05
-9.19955e-05
-0.000392923
-0.000986493
-0.00103866
-0.00176936
-0.00948729
-0.00948727
-0.00945892
-0.00801077
-0.00168835
-0.00081558
-0.00452466
0.00541412
0.00587513
0.000312264
0.000199343
5.79233e-05
-0.00104738
0.00596963
0.000142767
-0.00277291
-0.000465245
-0.000606632
-0.000181537
3.07012e-05
-0.000621076
0.00142515
-2.68313e-05
-0.00010485
-3.20148e-05
2.03609e-05
0.000268444
8.72262e-06
-0.000101206
-7.38884e-06
-3.5453e-05
-5.17446e-06
-5.95036e-07
3.06931e-07
5.09196e-06
-1.30098e-05
4.06145e-05
6.11756e-06
-6.10551e-06
-8.71092e-07
-5.00806e-08
-8.38565e-09
-1.01037e-09
-4.19832e-09
4.02772e-09
5.14e-08
5.71609e-09
5.13734e-08
2.16412e-08
-1.33045e-07
3.90199e-08
5.45377e-07
1.62806e-07
-9.99013e-08
-5.547e-08
3.90764e-08
2.94354e-08
-9.73193e-09
-7.31177e-10
-2.9711e-09
9.00323e-10
1.30821e-08
3.11965e-09
4.31715e-09
2.77274e-10
-1.23417e-09
1.13115e-09
3.07423e-10
3.89666e-10
3.47025e-10
8.47223e-10
7.14971e-10
3.64513e-10
4.01844e-11
7.77569e-11
1.97413e-12
-2.06003e-11
8.6516e-11
-7.75464e-11
2.66636e-12
-1.28875e-11
-3.26198e-11
-1.15698e-11
-3.80536e-11
1.45567e-11
4.52735e-12
-1.49913e-11
5.43197e-11
3.49784e-11
7.36339e-11
3.29629e-10
-5.36141e-11
-1.08898e-12
6.18705e-12
-3.72456e-11
-1.69658e-10
-1.83639e-11
-1.72183e-10
3.21489e-11
3.5222e-10
-9.26836e-10
-4.85221e-10
-1.08086e-11
-9.22569e-11
-1.59314e-10
-3.00587e-10
-1.12162e-10
-2.58455e-09
-2.28763e-08
-1.6916e-07
-9.92562e-07
-1.23726e-07
1.30878e-06
1.90544e-05
0.00010859
-0.000607396
-0.00407361
0.0120018
-0.00147521
0.00634607
-0.0143276
-0.00725151
-0.00725095
-0.0143285
-0.00729651
-0.00018495
-0.0123731
0.0184082
0.00166479
-0.000359911
-0.0117899
-0.000735224
0.00869853
-0.00628283
-0.0138023
-0.0119638
-0.0095051
-0.00790681
0.00145327
0.00239384
0.00139615
0.000789849
-0.0123536
0.00139646
-0.00729585
-0.0123733
-0.000184468
0.00361835
0.00166533
-0.0117899
-0.000359728
0.00163097
-7.54317e-05
0.0153911
-0.0114714
-0.000142556
0.0113402
0.000875543
-0.000306009
0.00239457
0.00187593
-0.00278827
0.00361843
0.00253023
0.000555695
-0.00096479
-0.000305475
4.09584e-05
0.000874994
-0.00199814
-0.000206218
-0.00098862
0.000287397
-0.000307172
-0.000486554
-0.000452234
2.31701e-05
5.53571e-06
0.000105613
-0.0016297
0.00174275
-0.00347103
0.00345984
-0.000124659
-0.00182047
-7.75562e-06
-0.000169076
0.00018738
3.15458e-05
-4.01322e-05
-7.63518e-06
-1.17968e-06
-1.52314e-07
4.03839e-08
1.64572e-06
-6.08731e-08
-2.14319e-07
-5.22853e-07
3.37785e-09
-4.99487e-07
1.04209e-06
1.31356e-07
-4.5083e-06
-4.79386e-06
1.1062e-06
-1.33849e-07
1.05258e-05
1.89092e-06
-3.49287e-05
-3.74194e-05
-5.16138e-07
8.40765e-05
1.77448e-05
-0.000225648
-0.000243301
-3.03857e-07
0.000544654
0.000106589
-0.00117499
-0.00128455
5.90329e-06
3.9986e-05
0.00096016
0.00435002
-4.25381e-05
-0.000123241
0.000329566
-0.000174877
0.00127544
0.00148659
0.00258009
0.000578073
0.000101237
1.44554e-05
1.73677e-06
1.77219e-07
8.61066e-08
-4.13841e-07
-3.5719e-07
-3.83191e-07
-1.10345e-09
-3.83092e-07
6.52311e-07
1.08261e-07
-3.42714e-06
-3.42797e-06
6.52588e-07
2.33405e-07
1.89607e-08
9.66579e-10
-1.38377e-09
-1.01731e-09
-3.86125e-09
-2.37703e-09
1.71362e-09
-2.4019e-09
4.76121e-09
-1.41652e-09
-3.74244e-08
-3.74891e-08
4.75415e-09
-5.51181e-09
-8.56055e-10
-5.30554e-10
-5.00701e-10
1.26888e-10
-3.56988e-10
-8.00132e-10
-3.0525e-09
1.43505e-09
-2.55372e-09
8.34161e-09
-5.88321e-10
-4.90601e-08
-4.86086e-08
7.03817e-09
-3.89501e-09
-1.36805e-09
-6.2965e-10
-2.08591e-10
2.79108e-09
-1.05348e-08
-2.39524e-10
-4.6567e-08
-1.57819e-09
-1.78739e-07
-1.48241e-08
-6.39427e-07
-1.07265e-07
1.74775e-06
-1.84697e-06
-1.3385e-07
-4.79362e-06
-4.50943e-06
1.31349e-07
1.1064e-06
-5.22803e-07
-4.9968e-07
3.30036e-09
1.00165e-07
-2.15935e-08
4.79345e-07
-1.8215e-07
1.63966e-07
-5.71445e-08
-1.18184e-08
4.09243e-08
-2.84047e-09
-1.58331e-08
1.35768e-08
-1.65111e-09
4.85875e-08
-1.51239e-08
1.26527e-08
-2.49666e-09
-2.55053e-10
2.48509e-09
-1.37964e-10
-3.19528e-09
-9.84151e-10
2.15279e-09
4.48584e-10
-3.26359e-10
1.54598e-11
-2.04578e-10
-1.67624e-09
3.45718e-10
2.28123e-09
4.70168e-10
2.4691e-10
-1.26738e-09
-9.71148e-09
-3.61609e-09
-4.4319e-08
-8.81142e-08
-8.87279e-07
-4.7441e-07
-4.36095e-06
-7.67387e-06
-7.65344e-06
-8.84942e-07
1.12027e-06
-4.76665e-05
-4.78538e-05
-3.26535e-05
-0.000190228
-0.000186542
-0.00018601
-0.000536068
-0.000536248
-0.00089399
-0.00945931
-0.00801654
-0.00168994
0.00672666
-5.1581e-05
-0.00657517
0.000312345
-0.00418089
-0.000174803
-3.20565e-05
-0.00177039
8.34223e-05
3.29062e-05
4.68577e-06
4.59773e-07
3.07009e-08
6.81182e-10
1.79333e-08
-1.28573e-07
-5.86446e-09
-5.3981e-07
-1.17081e-08
-1.86594e-06
-1.09278e-07
-6.1559e-06
-8.24247e-07
1.5988e-05
-1.6168e-05
-5.16997e-07
-3.74189e-05
-3.4937e-05
1.8913e-06
1.05262e-05
1.00495e-05
-2.92232e-06
6.49295e-06
1.81808e-06
-2.62261e-05
-2.62316e-05
6.49518e-06
-2.92219e-06
1.00469e-05
-2.97674e-06
1.64712e-06
1.66647e-07
1.4207e-08
1.27213e-09
-5.53318e-09
7.86758e-10
-5.74863e-10
-3.53896e-10
-2.74228e-10
-1.65484e-10
-2.03458e-10
-1.17463e-10
-9.31167e-10
-3.24062e-10
-1.29699e-10
-3.25621e-10
-3.53826e-10
-5.03723e-10
-5.23085e-10
-8.13287e-10
2.24709e-10
-4.26982e-11
-1.59332e-10
-2.15914e-10
3.40648e-10
2.15384e-10
5.54896e-11
-1.66319e-10
-4.79378e-11
-5.0656e-10
2.77751e-09
-3.49098e-11
2.10014e-10
2.03707e-10
4.08828e-10
-2.68621e-10
-4.6383e-09
-8.34842e-09
1.72611e-08
4.95479e-08
3.62724e-09
1.5479e-07
-5.68995e-08
-9.74989e-08
1.41211e-07
5.54334e-07
-1.38253e-06
-6.06902e-08
-5.31645e-06
-4.8815e-08
1.50162e-05
-1.6737e-05
-6.40254e-07
-5.02942e-05
-5.28423e-06
0.00012225
-0.00011904
4.06044e-05
-7.62851e-06
3.24915e-06
-4.42237e-05
9.79884e-08
4.63964e-05
-8.06492e-07
-1.36248e-07
-1.8315e-08
-2.02663e-09
-5.98457e-09
-4.69077e-08
-2.74489e-07
-8.70899e-07
-6.10167e-06
-9.62972e-07
-9.62607e-07
4.30242e-07
3.40071e-06
0.000702084
-1.48244e-05
2.80508e-05
3.19266e-05
0.00322668
-5.16781e-05
-0.000125933
-3.14501e-05
-6.09383e-06
-9.49447e-07
-1.2345e-07
-1.3734e-08
-3.78559e-08
9.30296e-08
5.69281e-08
5.69112e-08
9.30663e-08
-3.78739e-08
-1.37391e-08
-1.23441e-07
-3.57171e-07
1.04259e-06
-4.1376e-07
-4.87389e-08
1.53119e-08
1.77304e-07
1.73706e-06
-2.97609e-06
-1.42454e-06
-2.1418e-07
-1.52288e-07
4.05268e-08
1.64596e-06
-5.29466e-07
-9.29892e-07
9.90431e-07
5.35529e-06
-1.27867e-05
-5.45271e-07
4.39192e-05
-9.91181e-05
-3.73999e-06
0.000297907
-0.000621208
-1.47467e-05
-0.00162977
3.19819e-05
0.00322657
-0.00301408
-0.000115845
0.00161299
-1.58509e-05
-1.75774e-05
1.77682e-05
5.35122e-06
-7.44684e-06
-4.1311e-06
-2.70088e-05
-4.91509e-05
-0.000148233
-0.000264388
-0.000815741
-0.00128112
-0.00452596
0.00541376
-0.00284259
0.00272041
-0.00950527
-0.0138018
-0.00628254
0.00869889
-0.000735399
0.000605446
0.00587498
0.000329923
0.00698494
-2.78595e-05
-1.15426e-05
-3.6092e-06
-4.31399e-06
-1.27715e-05
2.80314e-05
-0.000104825
-3.20122e-05
4.22733e-07
-3.14482e-05
1.46076e-05
2.1397e-06
-6.09345e-06
-9.49248e-07
-1.98809e-05
8.12916e-05
5.40815e-05
1.78597e-05
-0.000167326
-0.00016735
5.40947e-05
-1.98819e-05
8.12773e-05
-1.73031e-05
-7.15342e-06
7.07241e-06
-1.42707e-06
8.57701e-07
-1.99151e-05
4.93736e-05
-7.69375e-05
0.000532943
0.000362962
-0.000107459
7.32672e-05
0.000333471
0.00237733
0.000143233
0.00490298
7.29566e-05
0.000199372
5.80259e-05
0.00252965
0.00734864
-0.0027887
0.000555397
-0.000964504
-0.00790616
0.0184081
-0.0119632
0.00145378
4.06241e-05
-0.00060464
0.00348038
-0.0010992
0.000264031
0.00258693
-0.000255611
-0.000436238
0.000263723
0.011317
0.00732735
0.0179795
0.0110132
0.0150051
0.0159776
-0.00102072
0.000570452
9.85294e-05
1.38692e-05
-1.7298e-05
1.44536e-05
0.000101238
-7.68987e-05
-0.00010746
-1.98494e-05
-7.15206e-06
4.33633e-06
4.96896e-07
4.66017e-08
2.86526e-09
-1.31126e-09
-9.77454e-09
-5.78526e-08
4.00305e-07
5.54007e-06
-2.17233e-07
2.65235e-08
2.08103e-05
0.000702063
0.00010571
-0.000168913
-4.00949e-05
3.15351e-05
0.000187348
5.46059e-06
2.29531e-05
-4.22536e-05
-0.000452462
0.00096007
0.00434978
0.00127512
3.9945e-05
-0.000255351
0.000577945
0.000293165
0.00148676
4.93953e-05
-1.17915e-06
4.79524e-06
-1.68633e-08
-2.70299e-08
-3.38856e-09
6.7705e-09
8.61813e-08
8.58339e-07
7.0832e-06
-0.000125913
0.000292763
2.24699e-07
4.45866e-07
1.05187e-07
5.60061e-07
-4.87567e-08
1.00141e-07
-2.1561e-08
-7.46976e-11
-2.06397e-11
-2.2168e-11
-1.60547e-10
-6.51191e-11
-6.36296e-12
-1.73342e-10
-6.44817e-12
5.47344e-11
2.88772e-10
-1.62551e-12
-1.62363e-09
-3.77451e-10
2.23388e-10
-4.40179e-10
-2.34995e-10
-2.55515e-10
3.24097e-06
0.000114513
-3.73293e-06
-8.12294e-06
0.00163094
7.3157e-05
-0.00199869
-1.15831e-10
2.61457e-10
1.90172e-06
-9.57411e-08
1.13064e-07
-8.0052e-05
-5.45597e-07
-2.75735e-06
-5.87582e-09
-1.0937e-07
-5.34739e-10
-9.36092e-11
4.6754e-10
0.00949333
0.00989757
-0.000291484
-0.00159945
-0.000291822
0.016759
0.0179801
2.32454e-10
8.06419e-10
1.52859e-08
-6.15072e-10
8.36154e-09
7.05235e-09
-4.85877e-08
-4.91159e-08
-2.89979e-09
-1.58529e-08
2.05613e-09
4.22686e-10
-2.96234e-10
-3.71423e-10
-3.353e-10
9.05418e-11
-6.1346e-13
-1.37181e-10
1.61554e-10
1.5818e-10
1.75271e-10
3.80713e-10
7.34248e-10
-1.67552e-10
7.30027e-10
3.60725e-10
4.18865e-10
3.44126e-10
3.06644e-10
1.96565e-10
3.14468e-10
3.68226e-10
2.99803e-10
7.26354e-10
6.67801e-10
-2.27993e-10
2.70341e-09
1.88587e-10
3.97681e-10
1.76504e-10
2.39343e-10
8.35371e-11
-1.88458e-10
-6.09586e-12
2.52127e-09
-3.25487e-09
2.03137e-09
-2.76377e-10
7.94233e-11
-3.0105e-10
-3.27336e-10
-2.95249e-10
-5.36524e-10
-4.85415e-10
-8.78913e-10
-4.44468e-10
-7.89835e-10
-2.44822e-09
1.6226e-09
-5.37184e-10
-7.76449e-10
-4.26548e-10
-8.13215e-10
-4.31505e-10
-2.55515e-09
1.51003e-09
-2.98527e-09
-3.90577e-09
4.78262e-09
4.75342e-09
-1.33451e-09
-3.74519e-08
-3.78697e-08
9.30786e-08
3.33543e-09
1.00174e-07
-1.82139e-07
-2.15454e-08
4.79102e-07
-6.39324e-07
1.63903e-07
-1.17712e-08
-5.70278e-08
4.09393e-08
-1.18067e-09
-7.29372e-09
-2.13354e-08
1.05806e-07
1.35662e-06
5.63257e-06
0.000137437
0.00348054
-0.00290799
0.0104663
-0.00886787
0.00117955
0.0113398
-0.000142987
-0.0114714
0.00869857
-0.00628275
-0.0138017
-0.00950498
-0.0119633
-0.0123733
0.018408
0.00361823
0.00253005
-0.000184984
-0.00729695
-0.0143284
-0.00725176
-0.0123537
-0.00725145
-0.0143292
-0.00729684
-0.0123739
0.0184079
-0.00950498
-0.0119635
-0.0138021
-0.00628268
0.00869875
-0.0114715
0.0153909
-0.0154243
0.010466
0.00117985
0.0113401
-0.00886786
0.00572785
0.0131595
0.0098975
0.00779995
0.0169547
0.00679547
0.00474819
0.00684391
-0.00922454
-0.00922436
0.00474817
0.00679506
0.0169542
0.0077999
0.00989731
0.0094925
0.0131611
0.00572889
0.0064776
0.00644073
-0.00279094
0.0167586
0.0177328
0.0179788
0.0151555
0.0150046
0.0159776
0.015005
-0.0201485
-0.00109922
-0.00109907
-0.00642218
0.0151552
0.0179791
0.0177329
0.0167592
0.00644023
0.00647718
0.00459517
0.000398035
-0.000128767
-0.000599285
-0.00476642
-0.00689719
-0.00760196
-0.0174988
-0.0190902
0.00272055
-0.00284268
0.00672648
-0.00301397
0.00161299
-0.00062121
0.00029789
-9.91167e-05
4.39167e-05
-1.27873e-05
5.35523e-06
-1.38216e-06
5.54323e-07
-1.28579e-07
4.94785e-08
-1.06478e-08
1.26445e-08
-1.51338e-08
1.35818e-08
-1.58854e-08
8.3278e-09
-5.48423e-10
7.03882e-09
-3.07312e-09
1.42407e-09
-2.58502e-09
4.29026e-10
-3.98852e-10
-1.11177e-09
-7.27136e-09
-2.15093e-08
1.04406e-07
1.3468e-06
5.61096e-06
0.00013736
0.00348042
-0.00290792
-0.000988637
0.00147668
0.00028735
-0.00535984
-0.00535985
0.00147665
-0.000988551
0.000287419
-0.0023657
-0.0154245
0.0153909
-0.000735295
-0.0117899
0.00166484
-0.000359951
0.00163101
-7.53276e-05
-3.20697e-05
-0.00177046
-0.000607501
-0.00177046
0.00166461
0.00361816
0.0073482
0.00253015
-0.00147552
-0.00147541
0.00734832
0.000690907
-0.00396577
0.00490286
0.00490284
7.29996e-05
-0.00396574
0.00055537
0.00187592
0.00239386
0.00145384
-0.00790673
0.00139529
0.000789133
0.0120018
-0.0040739
0.00224984
-0.00464354
-0.00844984
-0.0178864
-0.0130317
0.0194826
-0.00750818
0.00596958
0.00596975
0.000142674
0.00298047
-2.02877e-05
-0.00127439
0.00061128
-2.78369e-06
-0.000232232
0.000101179
3.30691e-07
-3.29219e-05
1.36982e-05
1.57414e-07
-3.81873e-06
1.56002e-06
3.15674e-08
-3.7794e-07
1.53138e-07
4.66733e-09
-3.3577e-08
1.30442e-08
8.19485e-10
-3.11024e-09
2.54239e-10
-1.36097e-09
-1.33656e-09
2.63291e-10
-2.88301e-12
5.72047e-11
-2.24504e-10
-1.39833e-12
4.70254e-11
5.3391e-11
-2.98356e-10
-1.11815e-10
3.95e-11
1.02957e-10
-2.22439e-10
5.2404e-12
2.27997e-10
1.90048e-10
-3.68426e-10
-2.02271e-10
-2.20715e-10
-1.50687e-10
-2.65117e-10
-1.98838e-10
-2.49585e-10
-1.18088e-10
-3.40187e-10
-1.70983e-11
2.3549e-10
-4.93079e-10
-5.35323e-11
2.77438e-11
3.44282e-10
-8.94726e-10
-1.06317e-10
-5.22692e-11
-2.93832e-10
-9.67363e-11
1.76918e-10
-6.42735e-10
-3.2374e-11
-1.24838e-10
3.96362e-10
-1.65796e-10
-2.05522e-10
-3.26994e-11
-2.07904e-10
6.78228e-10
3.0597e-08
4.60112e-07
4.68473e-06
3.29288e-05
8.33848e-05
-5.15967e-05
-0.00657529
0.00698484
-0.00717844
0.00642123
-0.0032209
0.00155285
-0.00071048
0.000283039
-0.000119028
4.05961e-05
-1.61661e-05
4.79427e-06
-1.8468e-06
4.79206e-07
-1.82141e-07
4.08618e-08
-2.83607e-09
-4.90678e-08
-4.85586e-08
-3.74538e-08
5.69262e-08
-1.03137e-09
5.69412e-08
-3.83106e-07
-4.99531e-07
-5.22721e-07
1.10614e-06
1.04224e-06
1.31147e-07
-4.79335e-06
-1.33829e-07
-1.84672e-06
-1.07388e-07
1.74745e-06
-1.86561e-06
-1.09249e-07
5.53897e-06
-5.31516e-06
1.64566e-06
-1.1664e-08
5.59994e-07
-1.47849e-08
-1.78556e-07
4.85347e-08
-1.66967e-09
1.36429e-08
-9.9331e-10
-3.16759e-09
-2.11591e-10
-2.39992e-10
2.48695e-10
-6.6434e-11
-3.38311e-10
-1.16118e-10
-2.05441e-10
-1.51762e-10
-2.25245e-10
-1.25276e-10
-4.02429e-10
-2.21805e-10
-1.62753e-09
7.9674e-11
-5.5752e-11
-1.07394e-11
4.03138e-10
-5.7765e-10
4.26759e-10
-9.0631e-11
-2.2852e-10
-2.35866e-10
-1.81002e-10
9.29985e-10
1.8939e-08
2.33431e-07
2.13986e-06
1.46071e-05
7.33034e-05
0.000333542
0.00237742
-0.00218294
-0.00567174
-0.00437074
-0.0019984
0.000875271
4.03549e-05
-0.000142515
-0.000964494
-0.0117898
-0.000359912
0.00163088
7.31409e-05
0.000199293
0.000312295
-0.00418106
0.0039613
-0.00615157
0.000582177
-0.0226554
0.00052376
-0.00449981
0.000256956
0.00266143
0.00272052
-0.00543118
6.55317e-05
0.000960098
0.0043501
-4.24362e-05
-0.00452535
-0.00801171
-0.0094587
-0.000893495
-0.00128206
-0.00168961
-0.000815472
-0.000148236
-0.000264195
-0.000190267
-3.27053e-05
-4.91481e-05
1.7806e-05
-1.78022e-05
0.000105769
0.00322656
-0.0034709
0.00174272
-0.00182044
-0.000124632
0.00345979
-8.19542e-06
-2.78491e-05
-3.21591e-05
-7.55394e-05
-0.00236577
-0.000206262
-0.000305672
0.000555659
-0.00278824
-0.00018502
0.00634584
-0.00196697
-0.00948771
-0.00176866
-0.00103827
-0.000986427
-0.000393003
-9.19956e-05
-1.5248e-05
-2.00538e-06
-2.27724e-07
-2.40475e-08
-2.37137e-09
-1.64753e-10
2.03579e-10
1.99056e-10
3.90314e-10
-3.59942e-09
-4.43926e-08
-4.74861e-07
-4.36822e-06
-7.44457e-06
5.35526e-06
-2.69898e-05
-4.13139e-06
-5.29446e-07
-9.29458e-07
9.91316e-07
4.00245e-07
1.50152e-05
-1.67365e-05
5.53922e-06
-6.15525e-06
-8.24496e-07
1.5987e-05
-5.02891e-05
-5.28359e-06
0.000122243
-0.000339964
-2.80152e-05
0.000750882
-7.70606e-06
-0.000760794
0.000320258
3.39138e-06
0.000702072
-0.00162979
3.19461e-05
2.80463e-05
-1.15344e-05
-3.6043e-06
-2.7581e-06
-0.000125684
4.63902e-05
1.00157e-07
0.000114513
-0.000302544
-3.73403e-06
2.08187e-05
5.50205e-06
2.29612e-05
0.000329695
0.00587493
0.000605628
-0.000735307
0.00541339
-0.000452228
-0.000383338
0.00127491
0.00732634
0.0113168
0.00257995
0.00148812
4.0176e-05
-0.000169069
0.000187392
3.15542e-05
3.09111e-08
-2.14973e-07
-5.77567e-08
-9.67151e-09
-5.69678e-08
-9.74041e-08
1.41264e-07
4.05466e-08
1.64578e-06
-1.86584e-06
5.60053e-07
-6.39335e-07
-1.07463e-07
1.7476e-06
-1.09443e-07
-1.3617e-07
-8.07001e-07
-6.40416e-07
-2.74439e-07
-4.89404e-08
-5.31607e-06
-6.07347e-08
-8.71026e-07
1.36984e-05
4.46781e-07
-3.29274e-05
3.28882e-07
0.000101186
2.46093e-07
-0.000232254
-2.79648e-06
0.000611283
-1.5788e-05
-0.0012744
-2.04416e-05
0.00298049
-0.000115978
-0.0049848
-0.000414971
0.0127878
0.0123289
-0.00104775
5.79265e-05
5.79002e-05
0.012788
-0.000414916
-0.00498474
-0.00104772
-0.00750785
0.00225004
0.0194825
-0.00115838
-0.0130315
-0.0178854
-0.00844967
-0.0190909
-0.00464334
-0.00196682
0.006346
-0.00278836
0.00139565
0.00239434
-0.00790661
0.00145402
-0.000964707
-0.000306008
-0.000604672
-9.1103e-05
0.000143174
-3.69044e-05
0.000108555
-0.000606712
0.000142663
-0.00277283
0.00142535
-0.000621127
0.000268481
0.000268453
8.72741e-06
-0.000101212
6.12013e-06
4.06153e-05
1.90171e-06
-1.30102e-05
1.12101e-06
5.09242e-06
3.06984e-07
-1.39941e-06
1.62805e-07
5.45281e-07
3.90172e-08
-1.33116e-07
2.16102e-08
5.12961e-08
3.9787e-09
-1.22905e-08
2.9659e-09
4.29756e-09
1.09243e-09
4.31395e-09
2.16231e-10
-3.06907e-09
7.80107e-10
1.31117e-08
2.7555e-09
-3.35085e-08
4.72101e-09
1.53181e-07
1.78505e-08
-3.7801e-07
3.16245e-08
1.5601e-06
1.05311e-07
-3.81898e-06
1.56991e-07
1.1207e-06
5.09255e-06
1.13101e-07
-1.39926e-06
5.45393e-07
-1.33034e-07
5.1364e-08
5.63585e-09
-1.23086e-08
3.09155e-09
-7.58887e-10
-9.72e-09
2.16282e-08
-9.73862e-09
-8.81936e-08
-8.8816e-07
-7.67833e-06
-4.78131e-05
-0.000186108
-0.000535981
-0.000535921
-0.00948721
-0.00945858
-0.000893431
-0.000186344
-0.00277261
-2.68852e-05
0.00142531
3.06796e-05
-0.000621081
2.03708e-05
-3.20113e-05
-0.000181554
3.06571e-05
-8.00106e-05
-3.54537e-05
8.72274e-06
-0.000101217
4.06204e-05
-1.30114e-05
1.90092e-06
-5.17301e-06
-9.33213e-08
-5.94863e-07
3.0687e-07
-5.54457e-08
3.90348e-08
2.94014e-08
-4.24131e-09
4.05251e-09
-1.86183e-10
-3.14039e-11
-2.05335e-11
-1.0105e-11
2.02012e-10
6.1414e-11
9.39934e-11
1.60751e-10
6.01394e-11
6.75711e-11
1.80711e-10
-3.12316e-10
-9.24882e-13
-1.94587e-10
3.00163e-10
6.83742e-11
-1.98141e-10
2.27604e-11
2.54461e-10
1.61905e-10
7.37236e-10
1.13576e-10
5.61084e-11
-1.46369e-12
-2.86919e-12
7.38886e-12
8.3306e-11
-4.99188e-11
1.11381e-10
1.52162e-10
-8.23514e-11
-1.51114e-11
-2.6431e-11
2.94663e-10
-1.12211e-10
-1.0862e-10
-1.12508e-10
-5.8779e-10
2.49686e-10
1.38334e-11
-2.50442e-10
-4.35853e-11
-2.7973e-12
-1.06921e-11
9.87036e-12
8.65877e-11
6.95415e-12
6.87792e-11
-5.12662e-11
-1.09548e-11
-5.12388e-11
-1.0663e-10
-4.14246e-11
-1.78851e-11
5.09334e-11
-1.77168e-10
2.9089e-11
-7.46525e-10
-9.72722e-10
-8.3858e-09
-5.00645e-08
-1.23732e-07
1.31003e-06
1.90447e-05
-0.000104868
-2.67688e-05
-0.000104872
8.33583e-05
-0.000115917
0.00672651
-5.16797e-05
0.00322662
3.19683e-05
0.00174274
-7.73436e-06
0.000750936
-2.80253e-05
-0.000339943
0.000283059
-2.97485e-07
8.4065e-05
8.12807e-05
1.77495e-05
-0.000243295
0.000544565
0.00053297
0.000106567
-0.00128444
5.93871e-06
-0.000710565
0.00155281
-0.00182045
0.00345973
-0.000124543
-0.00322103
6.56469e-05
0.00272035
0.00266153
0.00025689
-0.005431
0.00642149
-0.00717844
-8.13528e-06
-0.00347089
0.00698483
-0.0065752
0.00587512
0.000312314
-0.00418103
-0.000174809
0.00396137
-0.00048651
-0.00615167
-0.00649624
0.000582208
0.000524128
-0.0226559
0.0113172
0.0110129
0.00026364
-0.00102071
-0.0033867
0.000263089
0.0018349
0.00183519
-0.000436028
-0.00117484
0.000106563
0.000532918
0.000544638
-0.00128446
5.87859e-06
-0.000243305
1.77616e-05
8.12764e-05
8.4076e-05
-3.03235e-07
-3.74191e-05
1.89118e-06
1.00464e-05
1.05266e-05
-5.16124e-07
4.33992e-06
4.97377e-07
4.66467e-08
2.91025e-09
-1.29501e-09
-4.77011e-09
-8.35448e-09
1.72301e-08
3.59306e-09
1.54654e-07
-1.78638e-07
4.85578e-08
-5.71542e-08
-1.18271e-08
1.63951e-07
-1.4754e-08
-1.83247e-08
-2.0689e-09
-1.70756e-09
-6.33688e-10
-2.8861e-10
-2.5789e-09
-5.69113e-10
-2.86874e-10
-2.59244e-10
2.22537e-09
2.47661e-10
-1.71182e-10
-4.4832e-12
-1.01487e-10
-1.66185e-09
-1.68186e-08
-1.52249e-07
-1.17951e-06
-7.6344e-06
-4.01273e-05
-1.98336e-05
0.000292838
0.00057778
0.000101231
4.95221e-05
-7.14663e-06
-1.73001e-05
-7.69172e-05
-0.00022564
-0.000167353
1.78493e-05
5.40758e-05
5.40904e-05
-1.98809e-05
-2.62319e-05
1.81982e-06
6.49254e-06
6.4944e-06
-2.92202e-06
-4.50826e-06
1.31395e-07
1.04235e-06
1.10646e-06
-4.79388e-06
-1.33637e-07
-1.42369e-06
7.0994e-06
1.44508e-05
1.73656e-06
8.5952e-07
-2.14328e-07
-4.13784e-07
-4.9954e-07
3.41081e-09
9.31143e-08
1.00172e-07
-5.22721e-07
-2.16015e-08
-2.70458e-08
8.61068e-08
1.77297e-07
1.53211e-08
6.71647e-09
-3.41297e-09
-5.7562e-11
2.0694e-10
8.02949e-10
-5.42668e-10
-3.52437e-10
-4.45254e-10
-3.76369e-10
-4.37566e-10
-4.52389e-10
-5.32279e-10
1.95235e-10
-3.54399e-10
1.27032e-09
1.42146e-08
-4.8701e-08
-3.78432e-08
-1.37419e-08
-5.94773e-09
-1.60457e-09
-4.66292e-08
-3.15925e-10
-4.69198e-08
-1.17722e-08
-5.39774e-07
-5.88379e-09
-9.99311e-08
1.62933e-07
-9.994e-08
-8.70824e-07
-6.10386e-06
4.68212e-06
3.29048e-05
-1.58155e-05
0.00161292
-1.48242e-05
0.000702071
3.39891e-06
0.000320241
-2.76307e-06
0.000122247
-5.28606e-06
-5.02864e-05
4.05971e-05
-5.15729e-07
1.05252e-05
1.00471e-05
1.89014e-06
-3.74143e-05
-3.49351e-05
-1.98828e-05
-2.62258e-05
-1.73008e-05
9.84881e-05
0.000570188
0.00258664
-0.000255589
-0.000255582
0.000263547
-0.00102062
-0.00450026
-0.0033861
-0.000307131
0.000199316
2.80294e-05
-2.78536e-05
-1.1544e-05
-1.27716e-05
4.27686e-07
-3.20045e-05
2.03597e-05
-6.10312e-06
6.12115e-06
-9.62193e-07
-4.3123e-06
-9.92513e-07
-1.6911e-07
-2.28606e-08
-2.57147e-09
-2.66534e-10
-9.81655e-11
-4.24965e-11
-2.20901e-10
6.69052e-10
3.05682e-08
4.597e-07
4.48919e-07
4.39094e-05
-5.44719e-07
1.50149e-05
-4.87525e-08
-1.67355e-05
-6.40556e-07
1.59859e-05
-8.24485e-07
-6.15483e-06
4.79407e-06
-1.61663e-05
-1.17994e-06
3.99306e-07
9.91728e-07
-4.36825e-06
-3.27135e-05
-0.000190118
-4.76596e-05
-7.65619e-06
-8.85015e-07
-8.78867e-08
-4.75285e-07
-4.44816e-08
-9.71391e-09
-1.26458e-09
-3.69727e-09
4.14051e-10
-3.2853e-10
2.18267e-09
-1.06651e-08
-3.84185e-10