/*--------------------------------*- C++ -*----------------------------------*\
| =========                 |                                                 |
| \\      /  F ield         | OpenFOAM: The Open Source CFD Toolbox           |
|  \\    /   O peration     | Version:  2306                                  |
|   \\  /    A nd           | Website:  www.openfoam.com                      |
|    \\/     M anipulation  |                                                 |
\*---------------------------------------------------------------------------*/
FoamFile
{
    version     2.0;
    format      ascii;
    arch        "LSB;label=32;scalar=64";
    class       volScalarField;
    location    "0.2";
    object      gradTy;
}
// * * * * * * * * * * * * * * * * * * * * * * * * * * * * * * * * * * * * * //

dimensions      [0 -1 0 1 0 0 0];

internalField   nonuniform List<scalar> 
2658
(
0.0071552
0.00441767
0.000946222
5.77096e-05
-0.00537054
0.00641451
-0.0032223
0.00269355
0.000257072
-0.0045913
0.000587771
-0.0226803
0.0175875
0.0176956
0.0151007
0.0151176
0.0159595
0.0149838
0.0154002
0.017507
0.0171999
0.0158733
0.00565592
-0.00229387
0.00419024
0.0157891
-0.00302358
0.00116993
0.0128504
-7.08773e-07
-0.0128505
0.00302373
-0.01579
-0.00565609
-0.00419011
0.00229418
0.00104431
0.00127534
-0.0158776
-0.0172006
-0.0175081
-0.0154007
-0.0149826
0.00608377
0.000895063
0.00117102
-0.000587825
0.00636465
-0.0151202
-0.0151008
-0.0176944
-0.0175876
-0.0165794
0.00274103
-0.0063598
-0.0045989
0.000419923
-0.0039431
-4.51456e-08
0.000530238
-0.000419719
0.00459887
0.00636027
-0.00274128
0.000565374
-0.0063558
-0.00619642
-0.000499767
-0.0070633
0.0070633
4.36026e-08
0.00343597
-0.000109805
0.00156385
5.23527e-06
-0.00126256
-0.00120417
0.000112511
0.000554201
0.000335961
-0.000819322
-0.000423903
0.00173742
0.00273708
0.000141066
9.56878e-06
2.92031e-06
5.00379e-07
5.20302e-08
3.73233e-09
3.59181e-10
-3.11137e-10
-8.31542e-11
1.21274e-10
-1.24209e-10
-1.06598e-09
-7.22678e-11
-1.51935e-10
-6.7742e-11
-3.58722e-11
-1.71987e-10
-1.1429e-10
-6.78127e-10
-7.0141e-11
-1.01582e-10
9.96499e-11
-7.90914e-11
-2.95085e-10
-8.97092e-11
-1.98903e-10
-8.02839e-12
-6.39302e-11
-9.53026e-11
8.79852e-11
6.27935e-12
1.42584e-10
1.88895e-10
-8.83416e-11
7.65663e-10
1.48632e-10
1.76508e-10
1.80826e-10
1.21004e-10
1.01267e-10
-7.65246e-11
-4.26126e-11
-1.56014e-10
1.06973e-09
8.34616e-11
7.7715e-11
2.03572e-10
5.11201e-11
5.34311e-11
1.7552e-10
2.10742e-10
-3.07898e-11
5.7699e-11
2.16388e-10
-3.84604e-10
4.14407e-10
-7.78113e-11
4.39538e-11
-4.36906e-11
-4.69017e-11
6.52455e-11
2.70226e-11
4.64736e-11
7.56951e-11
-1.11424e-10
1.01502e-10
-1.11549e-11
-1.25283e-11
1.27755e-10
-2.0794e-10
5.47516e-10
1.14618e-10
5.32568e-10
6.55669e-10
8.10731e-10
5.60372e-10
6.20105e-10
7.14261e-10
6.34685e-10
5.19465e-10
6.79957e-10
6.97557e-10
4.72573e-10
2.7518e-10
6.90255e-10
1.7847e-09
-5.39228e-09
3.86476e-08
-7.581e-08
4.13756e-07
-8.98069e-07
3.81564e-06
-8.89979e-06
2.99262e-05
-7.28517e-05
0.000194346
-0.00047977
0.00101063
-0.00245627
0.00392437
0.0040708
0.00344604
0.00328032
0.00459149
0.00537036
-5.77342e-05
-0.0064146
0.00619652
0.00635542
-0.000565354
0.0226802
-0.00345623
-0.000141109
-9.58545e-06
-2.91818e-06
-5.00634e-07
-5.21212e-08
-3.72554e-09
-3.45966e-10
2.98578e-10
4.20335e-12
1.93802e-11
-1.19197e-10
3.40743e-10
-3.72335e-11
4.583e-11
1.6391e-10
3.79619e-11
-4.29834e-10
-9.09531e-11
9.24777e-11
9.77732e-11
-9.15676e-10
6.25887e-11
-6.70938e-11
9.0585e-13
-1.86947e-10
-7.38623e-11
-3.20072e-11
7.63546e-12
-2.06384e-11
1.33076e-11
3.78433e-11
1.26527e-10
-1.82389e-10
1.90762e-10
-1.0985e-10
6.77353e-11
1.67102e-10
-4.5724e-11
-1.4319e-11
-9.03254e-11
1.11061e-10
-3.62347e-10
4.65369e-11
-7.03032e-11
6.18494e-12
9.60584e-12
-1.03265e-11
1.27888e-10
-3.75836e-12
-2.50958e-11
-2.00111e-11
-1.55265e-11
-2.70282e-10
4.95153e-10
5.77424e-10
-7.29067e-11
3.27035e-10
-6.76806e-10
3.86058e-09
-8.0443e-09
7.96709e-09
-1.66681e-09
2.31148e-08
-1.61717e-08
-1.37546e-07
2.84698e-07
-1.66766e-07
-1.37331e-06
3.00761e-06
-1.37108e-06
-1.18888e-05
2.67713e-05
-9.05143e-06
-8.65963e-05
0.000195219
-4.852e-05
-0.000511053
0.00112412
-0.000220478
-0.00233528
0.00481799
-0.00113111
-0.00887966
-0.00520244
-0.0126175
0.0126176
-0.00116935
-0.00471397
0.00703333
0.00624012
-3.6661e-08
-0.00405902
0.00405916
0.00444762
3.62392e-08
-0.00524256
0.00524274
0.00226589
6.40015e-08
-0.0152006
0.0152007
-0.0113156
2.00648e-07
0.0113155
-0.00887262
0.00566669
0.0130573
0.00980492
0.00941412
-0.0163111
0.010321
0.00113347
0.000877392
-0.000179361
-0.00226577
-0.00097125
-0.00295984
-0.00929169
0.00673567
0.0166893
0.00769787
0.00748178
-0.00439639
1.96321e-07
0.00439675
0.00295994
-0.010321
0.0163109
-0.0130583
-0.00566732
0.00887262
-0.00113363
-0.000877272
-0.00748076
-0.0076982
-0.0166891
-0.00673577
0.00929169
-0.00685787
-0.00497687
-0.0153122
-0.00462824
0.00866921
0.00223261
-0.00145553
0.00931117
-0.00232289
-0.00300835
-0.000492694
-0.000117257
-2.27881e-05
-3.31431e-06
-3.78564e-07
-3.58192e-08
-3.13092e-09
8.31475e-10
-4.33466e-09
-3.85639e-09
-3.00557e-09
-7.28555e-09
4.55103e-08
-9.68081e-08
4.83504e-07
-1.10105e-06
4.46749e-06
-1.06093e-05
3.51877e-05
-8.52677e-05
0.000229993
-0.000554189
0.00120422
-0.00273708
-0.000257238
-0.0026934
0.0032225
-0.00343602
0.00178678
-4.42162e-09
-0.00178678
0.000749875
-0.000708025
0.000539648
-0.000237871
0.000287723
3.20955e-07
8.37067e-05
1.98227e-05
-0.000229982
-0.000103141
-0.000156551
-0.000175933
1.79799e-05
5.88437e-05
6.37927e-05
-0.000196854
-0.000106708
0.000390496
0.000106424
-0.000910087
0.00194009
0.000253654
-0.00328029
-0.0010008
-0.00117096
-0.00636465
0.00685774
-0.00931136
0.00145547
0.00030994
-0.000306725
-9.8984e-09
-0.000335858
-7.98038e-05
-1.65934e-05
-2.58105e-06
-3.12949e-07
-3.12877e-08
-2.73379e-09
3.16241e-11
7.76797e-11
1.51098e-10
3.78637e-10
-3.06223e-11
-5.60934e-11
1.1062e-09
7.43252e-10
2.42464e-09
1.98657e-09
2.01805e-09
2.5412e-09
2.23984e-09
-2.67497e-10
-2.68587e-09
1.58771e-08
2.1187e-09
-4.58167e-08
4.78005e-08
-8.22992e-09
-7.17321e-10
-1.33147e-08
-1.87628e-10
-2.79615e-11
-9.8169e-11
-1.87937e-10
7.72284e-10
1.27226e-09
-5.5817e-09
3.28385e-09
-1.16356e-08
-1.54975e-07
-8.20616e-08
-5.31859e-09
-1.74918e-07
-8.52987e-07
2.44579e-07
2.92358e-08
4.66142e-08
3.9997e-08
3.5573e-08
-5.76753e-08
-4.47354e-08
3.28635e-08
3.42449e-08
6.05948e-10
-1.03055e-08
-1.45935e-07
-1.53847e-06
-1.60087e-06
-1.36471e-05
-7.16146e-06
-2.2841e-06
-2.03645e-05
-4.96263e-05
9.202e-06
1.6968e-06
2.9488e-06
3.83484e-06
3.47657e-06
-7.09248e-06
-5.7825e-06
2.69659e-06
3.15757e-06
-5.58929e-07
3.21569e-07
3.51077e-07
-5.02559e-09
3.78234e-07
-7.03176e-07
3.33106e-07
4.18217e-07
-6.25429e-08
3.3899e-08
7.57715e-09
-5.12133e-09
-2.31729e-08
4.71675e-09
1.20711e-08
1.01797e-09
-1.63649e-09
-6.37009e-11
2.94406e-10
-1.8245e-10
8.25457e-10
3.15658e-09
5.18157e-09
5.10745e-09
7.46902e-10
2.72008e-09
-2.70568e-10
-4.63331e-11
-4.06441e-09
-7.1052e-09
2.30662e-08
4.55014e-08
-1.70164e-07
-1.72342e-06
-1.44798e-05
-1.32971e-05
-9.54866e-05
-9.61637e-05
-0.000548714
-0.000284559
-0.000133164
-0.000745881
-0.00140857
6.83922e-05
3.50546e-05
7.90109e-05
0.00019684
0.000175938
-0.000390448
-0.000335888
0.000103143
0.000156549
-4.9186e-05
1.87335e-05
2.43226e-05
-1.93471e-06
2.71687e-05
-5.88357e-05
1.94486e-05
3.00922e-05
-7.60832e-06
2.79941e-06
5.60136e-07
7.02514e-08
-6.63944e-08
-2.84638e-07
4.53286e-08
1.37482e-07
1.60629e-08
3.74304e-09
-9.68499e-08
4.58909e-07
-1.0457e-06
1.04575e-06
-2.53447e-07
-4.34135e-06
-1.26008e-07
9.78615e-06
-1.86358e-06
-3.51969e-05
-8.91063e-08
7.66682e-05
-1.11528e-05
-0.000234425
3.51191e-06
0.000483402
-5.99907e-05
-0.00121965
1.73178e-05
0.00232895
-0.000407101
-0.00455534
-0.000532165
0.00752932
-1.61305e-07
-0.00752924
0.00520161
0.00887993
0.00113058
-0.0048176
-1.27758e-05
0.00233513
0.000220361
-0.00112405
3.13203e-05
0.000511093
4.84909e-05
-0.000195188
1.07017e-05
8.66013e-05
9.04341e-06
-2.67691e-05
2.27175e-06
1.18881e-05
1.37025e-06
-3.0072e-06
3.59009e-07
1.37323e-06
1.66916e-07
2.73896e-08
-1.15365e-07
-8.76428e-09
-2.78367e-10
3.20752e-10
-9.27928e-11
-7.90838e-11
-4.79005e-11
-5.344e-12
7.59962e-11
2.23894e-09
2.08449e-08
3.07304e-07
-3.75738e-08
-1.06923e-07
-7.36264e-07
0.00422478
-0.00422522
-0.00565265
-0.00646143
-0.000735623
-0.00248986
-0.0111398
0.0228064
0.000133188
0.00102446
0.000119751
-0.000436429
0.000532148
0.00455553
0.000406896
-0.00232884
-4.82391e-08
-3.67929e-08
-2.65447e-08
5.9972e-05
-0.000483398
0.0012196
-1.73447e-05
-0.000165929
-3.58634e-05
-3.52809e-06
0.000234419
1.11444e-05
-7.66695e-05
-1.70981e-09
1.0705e-09
-5.79301e-10
-1.43195e-10
2.53064e-07
4.34105e-06
-9.78578e-06
3.51967e-05
8.85626e-08
-5.6449e-06
-6.85987e-07
-1.09713e-10
-3.96247e-11
-1.59139e-11
-2.73603e-11
1.57612e-09
4.34186e-08
-6.55033e-11
-4.34692e-08
-3.79626e-09
9.67971e-08
-2.65715e-08
-4.58944e-07
-2.74754e-08
6.62895e-08
-9.43019e-12
2.65047e-08
6.53147e-14
5.10023e-09
1.46033e-10
1.61511e-09
-9.49236e-10
-1.20961e-08
-2.81943e-10
-4.00354e-09
1.73815e-10
5.35299e-10
-5.27173e-11
-3.6629e-10
1.30784e-11
-5.81616e-10
-1.94156e-10
-4.49155e-10
-1.26763e-10
-9.26195e-11
-6.35701e-11
1.38728e-11
3.27581e-11
-1.04607e-10
1.91156e-11
-1.42435e-10
1.24939e-11
1.26944e-13
1.59153e-11
1.26059e-11
2.28282e-10
1.69306e-10
4.33702e-11
4.70503e-11
2.34472e-11
8.30891e-11
1.23324e-10
2.48913e-11
-1.32344e-11
-2.83125e-11
1.55328e-10
1.43405e-10
1.72019e-12
7.23443e-11
3.39319e-10
-1.16909e-10
7.71359e-10
5.78624e-10
-1.06614e-11
6.28922e-11
3.00998e-11
1.174e-11
3.10867e-11
3.64987e-11
2.0417e-11
-2.75743e-11
-1.14358e-10
7.93537e-11
2.22118e-09
1.19377e-08
-2.53509e-08
-3.05047e-08
3.86735e-08
-3.95812e-07
-0.00703371
0.00471424
-0.00447083
0.00706953
-0.00706969
0.00447066
-0.0137436
0.00153405
-0.00549272
0.0113418
0.0029888
1.39681e-05
0.0102262
-0.00690676
-0.00722116
-0.0166657
-0.0063084
-0.00835055
-0.00869731
-0.00610075
0.00107052
0.00605238
0.00199316
-1.60187e-06
2.05657e-07
-0.00199244
0.0137431
0.00549249
-0.0015343
0.00331954
-0.00298894
-0.0102266
-1.41e-05
0.000891639
-0.00223267
-0.00866925
0.00462765
0.0153115
0.00497691
0.0064636
-0.00584071
-0.00605367
8.41798e-07
-0.00149574
-0.00331955
0.000602552
-3.47195e-05
-0.00627797
0.00584072
0.00160363
-0.00646349
0.000367269
0.000179378
0.00097118
-0.000309836
0.000306715
0.00100083
-0.000296611
-0.00257195
-0.000557683
0.000269641
0.00104147
0.000910187
-0.00194006
-0.0017372
0.000423938
0.00081931
-0.000106435
0.000249544
-0.000580425
-0.000101582
7.45548e-05
1.65909e-05
2.82952e-06
3.90396e-07
4.03964e-07
-7.51605e-07
-9.33863e-08
1.82809e-07
5.07277e-07
1.47884e-08
-5.13979e-07
1.81705e-06
8.5303e-08
-5.0173e-06
4.64955e-06
-1.11705e-06
-2.14175e-07
-1.05563e-05
2.76697e-07
-4.17777e-05
3.64079e-05
-2.35876e-06
-8.36978e-05
-3.2253e-07
-0.00028771
0.00023785
-1.98221e-05
-0.000539616
-5.17067e-06
-0.00156387
0.00126246
-0.00011257
-4.34009e-05
-0.00259204
-0.0112149
-0.0112406
-0.0159637
-0.000270294
0.0200413
-0.00124337
-0.00146972
-0.000946074
-0.000185273
-3.2066e-05
-4.61457e-06
-5.60301e-07
-5.6324e-08
-9.21967e-08
1.18171e-07
6.77583e-08
6.33948e-07
3.52715e-11
-6.33956e-07
1.83923e-06
3.93831e-11
-6.03408e-06
6.03397e-06
-1.83909e-06
-2.13335e-11
2.9798e-11
4.90218e-11
8.60713e-10
3.15958e-09
3.85298e-10
3.84691e-09
7.9929e-11
-3.8388e-09
1.54836e-08
9.52405e-12
-5.85727e-08
5.85908e-08
-1.54465e-08
1.25486e-09
8.45469e-10
-1.43872e-10
2.35165e-10
-1.13507e-11
-1.06726e-10
-8.58774e-10
2.65593e-09
1.9428e-10
-2.31846e-09
8.18581e-09
-2.13123e-09
-4.77643e-08
4.58096e-08
-1.58872e-08
-4.51039e-10
-8.24009e-10
-8.26475e-10
3.14518e-09
-4.68352e-09
5.43009e-09
-7.20733e-10
-3.99402e-08
-3.38028e-08
5.76878e-08
5.03855e-09
-3.51087e-07
-3.21645e-07
5.59353e-07
1.10112e-06
2.14351e-07
-4.6499e-06
5.01711e-06
-8.50933e-08
1.11734e-06
-5.07358e-07
5.14052e-07
-1.48506e-08
1.01105e-07
1.54757e-08
-4.83585e-07
9.68246e-08
4.47784e-08
-3.42131e-08
-3.28124e-08
-4.54985e-08
6.37411e-10
7.24967e-09
3.02645e-09
-5.04169e-10
-3.55842e-08
3.92653e-09
4.43556e-09
-2.3764e-09
-3.10914e-09
-1.84964e-09
1.35626e-09
-1.89866e-09
-3.11322e-09
-2.49603e-09
1.42048e-09
-5.52926e-10
-5.72533e-10
-6.36751e-10
-5.04308e-09
-5.11975e-09
-3.25024e-09
-7.82458e-10
-4.08403e-10
2.2497e-10
8.70123e-09
-1.3086e-09
5.37246e-09
1.15289e-07
1.18006e-06
1.75437e-07
2.28731e-06
9.39913e-06
-9.40686e-06
-1.18048e-06
1.25582e-07
-5.50974e-05
5.50546e-05
2.03742e-05
0.00013326
0.000216408
-0.000216604
-0.000493232
0.000493469
0.000746602
0.00565315
0.00646086
0.000737657
-0.00392452
0.000208798
-0.00407076
-0.00102449
-0.000895169
-0.0200415
0.00232285
0.00300826
0.000492575
0.000117232
2.27787e-05
3.31311e-06
3.78354e-07
3.58474e-08
-4.53261e-08
7.57733e-08
1.3219e-09
-4.18213e-07
-3.33175e-07
7.03317e-07
1.39413e-07
-3.15739e-06
-2.6957e-06
5.78529e-06
1.06104e-05
2.35796e-06
-3.64125e-05
4.17772e-05
-2.75851e-07
1.05583e-05
-1.59584e-05
-5.63063e-07
1.64302e-05
1.75649e-10
-4.91777e-05
4.91774e-05
-1.64302e-05
5.6293e-07
1.59603e-05
9.62146e-07
1.98821e-10
6.40513e-11
2.72846e-11
8.94525e-12
-1.25989e-09
3.75635e-11
-4.76523e-10
1.4194e-10
4.67273e-11
-2.4011e-10
-2.03776e-10
-4.11045e-12
-7.97265e-10
-2.77692e-11
-1.94696e-10
-7.26722e-10
-6.53818e-10
-6.25949e-10
-4.93879e-10
-1.31513e-10
2.54076e-10
1.85524e-10
4.24606e-11
7.63278e-11
-7.06809e-10
-4.55661e-10
-6.89097e-10
-5.81064e-10
-6.02656e-10
1.12295e-09
-1.71268e-09
1.64044e-10
-6.89755e-10
-7.10392e-10
-4.8807e-10
1.90291e-10
1.16861e-08
5.6842e-09
-2.92301e-08
-3.8686e-08
-4.65885e-08
6.26362e-08
1.54966e-07
8.23476e-08
-2.44383e-07
-4.13735e-07
8.98419e-07
9.3658e-08
-3.83479e-06
-2.79943e-06
7.61065e-06
7.09306e-06
1.93458e-06
-2.43254e-05
-1.87343e-05
4.92045e-05
8.5267e-05
-3.51853e-05
-1.659e-05
-1.73994e-05
-3.00897e-05
-1.94459e-05
-2.71673e-05
2.58038e-06
3.12849e-07
3.12833e-08
2.77388e-09
-7.57604e-09
-7.03249e-08
-5.60317e-07
6.8551e-07
5.64207e-06
-3.70649e-06
3.70497e-06
1.91153e-05
0.000106691
-0.00043077
-8.89781e-05
6.97771e-05
0.000433317
-0.00223251
-0.000208951
0.000108443
2.52102e-05
4.47299e-06
6.35448e-07
7.61435e-08
7.96696e-09
6.83539e-09
1.79544e-07
-1.78416e-07
1.78507e-07
-1.79489e-07
-6.79067e-09
-7.92123e-09
-7.61421e-08
-6.76952e-08
-1.81699e-06
-1.18188e-07
-1.263e-08
4.02373e-09
5.64039e-08
5.60796e-07
-9.61696e-07
-1.21953e-06
-1.82722e-07
-3.90399e-07
-4.03901e-07
7.51956e-07
1.60161e-06
8.5634e-07
-1.6949e-06
-3.81577e-06
8.90204e-06
1.50757e-06
-2.99274e-05
7.28704e-05
1.47881e-05
-0.000194345
0.000479812
8.89402e-05
-0.00104159
-0.000433394
0.00223271
0.00245647
1.27338e-05
-0.0010106
-3.13068e-05
-6.84115e-05
-3.49734e-05
-9.18788e-06
7.18296e-06
1.36523e-05
9.62014e-05
4.9783e-05
0.000548739
0.000285554
0.0024903
0.00140737
0.0111393
-0.0228064
-0.00104447
-0.00127426
0.00869682
0.00630799
0.016666
0.00722124
0.00690665
-0.00608365
-0.000132989
0.000270038
-0.003446
0.000335801
7.97909e-05
1.65888e-05
-2.2974e-09
-7.19725e-09
-6.97866e-05
0.000165904
3.58543e-05
-1.91199e-05
-2.52175e-05
7.11115e-10
-8.14897e-11
-4.4734e-06
-6.35714e-07
-3.91308e-06
-0.000118077
0.000123497
9.48785e-10
-0.00033281
0.000332806
-0.000123497
3.91364e-06
0.000118088
6.57739e-06
6.15574e-06
-7.41159e-06
1.22016e-06
-9.10999e-07
1.67793e-05
-5.07752e-05
3.64516e-05
0.000708021
-0.000749839
2.25639e-05
-3.10463e-09
-1.67563e-09
9.72913e-09
-8.7037e-09
-0.00444776
0.000542049
-0.000119784
0.000436299
-0.000602471
-0.00624076
0.00149583
3.43821e-05
0.00627771
0.00610011
-0.0113414
0.00834977
-0.00107056
-0.00160422
-1.95204e-07
0.00345618
0.00394307
-0.000416254
2.48832e-07
0.00015966
0.000109799
0.000416398
-0.00441777
-0.00715558
-0.00645699
5.07544e-08
-0.000530117
6.71576e-07
0.000499724
8.77037e-08
8.97131e-09
1.01054e-09
-6.57515e-06
4.6185e-06
3.20777e-05
-3.6457e-05
-2.25763e-05
-1.67632e-05
-6.15114e-06
1.4485e-05
1.72393e-06
1.70294e-07
1.32864e-08
1.03667e-08
1.45973e-07
1.53896e-06
-2.94831e-06
-3.47646e-06
1.33e-05
9.55138e-05
-7.89932e-05
0.000430864
-0.000269416
-0.000249494
-7.45295e-05
0.000101629
0.000580638
0.000557827
0.00257229
0.0112401
0.000296608
0.00259183
0.0112146
0.00124301
4.33818e-05
-0.000159744
0.000185255
0.000295027
0.00146994
5.08281e-05
-2.82987e-06
-4.46667e-06
-4.54866e-08
-2.30746e-08
-2.74786e-09
7.10161e-09
9.23011e-08
9.12648e-07
7.41578e-06
-0.00010844
-0.000294747
-1.07012e-05
-2.27217e-06
-3.59036e-07
-3.78263e-07
1.26256e-08
-1.01099e-07
-1.54815e-08
-9.817e-12
3.15581e-11
-4.68039e-11
-5.27978e-11
1.17691e-12
-7.0956e-14
-1.25762e-10
-1.4088e-10
1.51817e-11
9.98035e-11
-2.54557e-10
-2.03743e-10
-8.64624e-11
9.16912e-11
1.06846e-10
8.42219e-11
1.94063e-12
1.74025e-05
-6.37676e-05
-1.47931e-05
-0.000253695
-0.000891705
-0.000542138
-0.000367203
5.66818e-12
-3.85081e-11
1.86103e-06
-4.94947e-10
-2.173e-11
-1.43879e-08
-1.5073e-06
-1.79715e-05
-1.31313e-09
-1.39284e-07
-1.07061e-09
-1.29151e-09
-1.38256e-09
-0.00941349
-0.00980488
0.0020452
-4.68189e-08
-0.00204517
0.0165798
0.00645649
2.58212e-10
2.17146e-11
3.97288e-09
-2.22369e-09
8.12047e-09
-1.59194e-08
4.57906e-08
-4.78043e-08
6.55404e-10
7.25664e-09
-2.46461e-09
1.42238e-09
-6.81719e-10
-6.73513e-10
-5.85823e-10
-6.5982e-10
-6.86664e-10
-6.78274e-10
-5.3661e-10
-7.40061e-10
-7.15098e-10
-5.32545e-10
-2.36332e-10
2.79729e-11
-4.92285e-10
-5.36929e-10
4.75428e-11
-8.522e-11
-3.05661e-10
2.30717e-11
3.0661e-10
-7.87978e-11
5.39815e-10
2.10106e-10
4.70045e-10
-1.4768e-10
1.76187e-09
6.52847e-10
4.6842e-10
6.70766e-10
6.28877e-10
4.9107e-10
6.87416e-10
7.5536e-10
1.98042e-09
2.03713e-09
2.50216e-09
6.99132e-10
6.04645e-10
5.25732e-10
7.68568e-10
6.59491e-10
4.88546e-10
6.30648e-10
1.37137e-10
1.5013e-10
8.66711e-10
3.87673e-09
1.97044e-11
2.04599e-10
-8.89089e-10
-9.92948e-11
-1.39906e-10
-6.72788e-10
-2.30974e-09
2.13645e-10
2.59044e-09
-3.70719e-10
1.54342e-08
-1.5436e-08
-1.03197e-10
-5.85891e-08
-6.66668e-09
-1.79481e-07
-1.49174e-08
1.01044e-07
9.6814e-08
1.54594e-08
-4.83514e-07
-3.51089e-07
4.47496e-08
-3.2875e-08
-3.42205e-08
-4.55068e-08
3.15156e-10
3.69556e-09
5.21318e-08
5.00358e-07
2.9321e-06
9.61061e-06
0.000141176
0.00345634
-0.00295974
-0.00929167
0.00673598
0.00685798
0.00497722
0.0153118
0.00462802
0.00722171
0.0166668
0.00630863
0.00869713
0.00835035
0.00549232
-0.011342
0.00331939
-0.000602675
-0.00153424
0.0137435
-0.00447027
0.00706961
-6.91025e-08
-0.0070702
0.00447052
-0.0137429
-0.00549213
0.011342
-0.00869669
-0.0083499
-0.00630846
-0.0166666
-0.0072211
-0.00462803
0.00866943
0.00931098
0.0092916
-0.00685792
-0.00497711
-0.00673612
-0.0166898
-0.00769858
-0.00980509
-0.0130585
-0.00566722
0.00887266
-0.0113156
-0.00113355
0.0152006
-0.0152005
0.0113158
-0.00887269
0.0056666
0.0130576
0.00980523
0.0094144
0.00769831
0.016689
0.0176953
0.0175874
-0.00274119
0.0165797
0.00636017
0.00645636
0.00459874
0.000530432
8.52218e-07
-0.000530045
-1.1066e-07
0.00394319
-0.00394312
0.000419844
-0.00459883
-0.00645655
-0.00636038
-0.0165798
-0.017588
-0.0176946
-0.0151007
-0.0151176
-0.0159594
-0.0149837
-0.0154001
-0.0175081
-0.0171996
-0.0158745
-0.00565489
0.00127496
0.00104447
0.0039246
-0.00245661
0.00101056
-0.000479808
0.000194367
-7.28663e-05
2.99278e-05
-8.90209e-06
3.81614e-06
-8.98201e-07
4.13758e-07
-7.58039e-08
3.86832e-08
-5.45087e-09
-4.33348e-09
-3.91512e-09
-2.99212e-09
-7.24655e-09
-8.06262e-09
2.28253e-09
1.59584e-08
-2.63166e-09
-2.57536e-10
2.41601e-09
-1.42101e-09
3.77049e-10
-2.7716e-10
-3.72502e-09
-5.19553e-08
-5.00276e-07
-2.91741e-06
-9.62914e-06
-0.000141176
-0.00345636
0.00295965
0.000971145
0.00226582
-0.000309997
0.00524268
-0.00524258
-0.00226574
-0.000971102
0.000310025
0.00145558
-0.00931128
-0.00866914
0.00690671
-0.0102264
-0.00298887
-1.3977e-05
0.000891684
-0.00223248
0.00232296
0.00300835
-2.83839e-09
-0.00300826
0.00298891
-0.00331933
0.00624024
0.000602359
0.00703329
-0.00703367
-0.00624056
-1.57243e-07
0.00405917
0.00444756
-0.00444774
0.000542019
-0.00405914
3.43278e-05
2.81293e-07
0.00605246
0.00107026
-0.00610007
0.00199326
-3.84552e-07
-5.23877e-07
-2.6106e-08
0.00520202
-0.00419031
-0.0157891
0.00302333
-0.0128511
0.0126171
-0.00752902
0.00455524
-0.00455537
-0.000406979
-0.00233506
-0.000220332
0.00112403
-0.00051108
-4.84697e-05
0.000195188
-8.66019e-05
-9.03916e-06
2.67678e-05
-1.1889e-05
-1.36965e-06
3.00719e-06
-1.37328e-06
-1.66851e-07
2.84596e-07
-1.37586e-07
-1.61934e-08
2.31186e-08
-1.20092e-08
-9.63227e-10
1.63971e-09
2.5797e-10
6.77065e-10
-6.7853e-10
8.41998e-11
4.26638e-11
-9.77731e-11
-2.10387e-10
-4.38786e-11
2.41368e-13
-5.83865e-11
-1.44478e-10
1.42131e-11
7.46919e-11
-9.10393e-11
-1.20004e-10
-9.25413e-12
3.74693e-10
-3.34307e-10
1.4292e-10
2.03723e-11
-2.05103e-11
6.15237e-11
-1.9803e-11
1.96235e-10
1.86237e-10
1.29245e-10
4.12399e-11
2.41137e-10
1.63707e-10
-1.20283e-10
7.52081e-12
3.00109e-10
-9.42161e-11
9.31885e-10
9.43948e-11
1.70154e-10
5.06065e-11
2.18694e-10
2.37108e-10
-1.13872e-10
1.24821e-11
4.65174e-12
-2.07735e-11
1.05079e-09
4.21005e-11
2.17113e-14
-3.10542e-09
-3.58438e-08
-3.78502e-07
-3.31402e-06
-2.27855e-05
-0.000117251
-0.000492596
-0.000208688
0.00407037
0.00344629
0.00328008
0.00459158
-0.00273711
0.00120424
-0.000554207
0.000229996
-8.5269e-05
3.51878e-05
-1.06113e-05
4.46702e-06
-1.1011e-06
4.83538e-07
-9.68449e-08
4.55181e-08
-6.32471e-10
4.78151e-08
-4.5717e-08
5.85389e-08
-1.78469e-07
-2.60407e-11
1.78441e-07
-6.33915e-07
5.13954e-07
-5.07378e-07
1.11711e-06
-1.81693e-06
-8.52638e-08
-4.64983e-06
2.1433e-07
1.10082e-06
-3.21571e-07
5.59079e-07
7.02961e-07
1.39348e-07
-3.47615e-06
-3.83446e-06
7.51601e-07
-3.33097e-07
-3.78231e-07
4.98251e-09
5.75964e-08
-3.56039e-08
-4.78201e-10
3.00125e-09
-3.1406e-09
-1.9593e-09
-7.02827e-10
-1.01423e-09
-6.58262e-11
-2.1557e-10
-3.89177e-11
-4.49547e-11
-2.16768e-10
-2.13013e-10
2.65556e-11
7.61564e-13
-5.44185e-11
7.51048e-11
-2.28809e-10
-4.14587e-10
-9.29241e-11
-7.57364e-11
1.21829e-10
1.93064e-10
7.88228e-11
-8.52119e-11
-4.52768e-10
1.15623e-10
-5.806e-12
3.6151e-12
9.93853e-12
6.63805e-11
4.79448e-10
2.00637e-09
8.94677e-09
1.05159e-08
3.30705e-08
1.23613e-08
2.3578e-07
0.00439647
0.000367191
-0.00646346
0.00160404
-0.0153114
-0.00627768
0.0102261
1.3957e-05
-0.00089164
-0.000542147
0.000119731
0.00102447
0.000894986
0.00117109
-0.000587954
-0.000565413
0.00635535
0.00619654
-0.00641452
-5.77423e-05
0.0032224
-0.00269331
0.00537027
-0.000257241
-0.00259182
-0.0112153
-0.0112399
-0.0111384
-0.00646142
-0.00565247
-0.0007466
-0.00140799
-0.000737405
-0.00249033
-0.000548655
-0.000285492
-0.000133228
-2.03811e-05
-4.97565e-05
3.49748e-05
6.8399e-05
0.000269513
-0.00223257
-0.00194016
0.000910146
0.000819215
0.000423927
-0.00173719
-0.000253968
-0.000335869
-0.00232295
0.00223266
-0.0014556
0.000179367
0.00584086
-3.47119e-05
-0.00149592
0.00153439
-0.00471409
-0.00116967
-0.00422485
-2.45674e-07
1.32875e-07
6.72145e-10
1.58421e-07
7.71762e-09
-2.34365e-10
-1.97483e-10
-1.70763e-11
1.02696e-11
-3.82611e-12
-7.00943e-11
-3.58397e-10
3.17416e-10
7.20618e-10
1.2928e-09
-5.36721e-09
-1.75412e-07
-2.28747e-06
-7.18096e-06
9.18723e-06
-9.6162e-05
-1.36486e-05
-1.6011e-06
-8.55719e-07
1.69526e-06
2.94919e-06
-7.61012e-06
-7.09377e-06
3.47635e-06
3.15711e-06
2.69592e-06
-5.78395e-06
2.43203e-05
1.87326e-05
-4.9192e-05
0.000156536
0.000103139
-0.000335889
-0.000106471
-0.000390504
0.000175939
0.000106693
-0.00043079
0.00104143
0.000433306
6.97675e-05
-7.97951e-05
-1.65949e-05
-1.79807e-05
-5.88429e-05
2.71673e-05
1.9445e-05
-6.37775e-05
0.00019685
-1.47962e-05
7.90178e-05
-0.00055767
-0.00257195
-0.000269685
0.000133276
0.00608386
-0.00690668
0.0228061
-0.000296804
0.00636461
-0.00124303
-0.00715527
-0.00441788
-0.000946153
-0.00147008
-4.33244e-05
0.000249564
-0.000580387
-0.000101585
-9.5479e-05
-1.32936e-05
-1.53824e-06
-1.45883e-07
-1.54895e-07
-8.22271e-08
2.44425e-07
4.04017e-07
-7.51746e-07
-7.03243e-07
3.78368e-07
3.51105e-07
3.2166e-07
-5.5915e-07
-1.39417e-07
-3.12898e-07
-2.58031e-06
-1.93545e-06
5.60249e-07
2.79927e-06
3.83452e-06
-9.35722e-08
-6.85639e-07
1.1889e-05
2.27054e-06
-2.67734e-05
9.04575e-06
8.66054e-05
1.07032e-05
-0.000195221
4.85087e-05
0.000511078
3.13117e-05
-0.00112412
0.000220397
0.00233509
-1.28241e-05
-0.00481782
0.00113105
0.00887949
0.00229409
0.000532027
-0.000436401
0.000436365
-0.00887977
-0.00113078
0.00481769
-0.000532157
0.00752901
-0.00520198
-0.0126175
-1.0765e-07
0.0128504
-0.00302334
0.0157901
0.00565528
0.00419031
0.00116956
0.00471442
0.00149569
-0.00199342
-0.00605276
0.0061008
-0.00107044
0.00627775
-0.0058406
-3.27766e-07
5.90177e-08
-1.02753e-08
-2.37564e-09
-1.67937e-09
1.89678e-09
0.000407128
-0.00232882
0.00121957
-0.000483422
0.000234438
-0.000234446
-1.11476e-05
7.66716e-05
-8.57017e-08
-3.51956e-05
-1.86183e-06
9.78621e-06
-1.25254e-07
-4.34141e-06
-2.5321e-07
1.04582e-06
-2.74153e-08
-4.58913e-07
-2.6535e-08
9.68528e-08
-3.73139e-09
-4.33744e-08
-1.52692e-09
8.02006e-09
-2.95411e-10
-3.90109e-09
-2.1746e-11
3.84865e-09
-3.33689e-10
-1.63631e-09
9.72691e-10
1.20698e-08
4.73576e-09
-2.31039e-08
1.61421e-08
1.37488e-07
4.53191e-08
-2.84644e-07
1.66898e-07
1.37338e-06
3.58917e-07
-3.00769e-06
1.37038e-06
1.2542e-07
4.34139e-06
1.12545e-10
-1.04582e-06
4.58999e-07
-9.68155e-08
4.34297e-08
1.14006e-12
-7.98735e-09
2.85995e-10
-2.17034e-10
-5.15832e-09
3.77541e-09
-8.69733e-09
-1.15372e-07
-1.18153e-06
-9.4071e-06
-5.50604e-05
-0.000216461
-0.00049321
0.000493202
0.0042247
0.00565258
0.000746575
0.000216294
0.00232875
1.73392e-05
-0.00121961
-5.99858e-05
0.00048337
3.54013e-06
3.58601e-05
1.86626e-08
6.00443e-05
2.36095e-09
-1.69613e-09
1.11584e-05
-7.66762e-05
3.51965e-05
-9.78685e-06
1.86214e-06
-4.73239e-10
7.42964e-11
3.26899e-11
2.53286e-07
-6.19787e-12
2.64502e-08
7.60968e-13
8.75894e-12
1.5539e-09
-4.26038e-11
2.08333e-12
1.35775e-10
2.02246e-11
1.28269e-11
-2.57684e-11
8.38604e-11
-5.4505e-11
1.79784e-10
2.53383e-11
1.7692e-10
-1.13351e-10
-3.41353e-11
-6.40101e-11
-7.6829e-11
1.10807e-09
1.63655e-10
1.40403e-10
7.59955e-11
4.13735e-11
7.04437e-10
1.20532e-10
-3.89846e-11
-1.1044e-11
3.6827e-11
-4.0256e-11
3.61016e-11
-6.66531e-12
-2.02192e-10
-1.4948e-10
-2.51543e-11
-4.98221e-11
-5.05024e-12
5.86317e-11
3.37012e-11
-1.38502e-10
-3.47102e-11
8.88331e-11
-1.33187e-10
-2.46593e-10
-8.88173e-11
-1.38466e-10
-1.8424e-11
-8.11672e-12
-2.54912e-11
6.32718e-11
1.10398e-10
2.23914e-10
4.70867e-11
1.20556e-10
-3.45659e-12
-8.42869e-12
1.48732e-11
-6.13054e-11
-3.62528e-11
1.64578e-10
-2.35845e-10
1.90009e-10
-3.56304e-11
-8.25214e-12
4.01162e-11
5.17231e-10
-2.11407e-09
9.44827e-09
-0.000165896
-1.72868e-05
0.000165924
0.000492694
1.27515e-05
-0.00392458
0.000208894
0.00223255
-0.000433337
-0.000910203
0.000106409
0.00033587
-0.000103124
-0.000156554
-0.000229977
1.9811e-05
8.36945e-05
-0.000118075
3.21802e-07
-0.000237874
0.000539575
-0.000707989
5.23375e-06
-0.00126259
0.000112545
0.000554141
-0.00120411
-0.000819413
0.00173722
-0.000423858
0.00273695
0.000257445
0.00269338
-0.0032222
5.7803e-05
-0.00537058
-0.00459142
-0.00328038
0.00025391
0.00193993
-0.0034461
-0.00407072
-0.000133245
-0.00102451
-0.000895112
-0.0200414
-0.00117095
-0.00100075
0.000587677
-0.02268
0.000565453
-0.00619653
-0.00635571
0.00441753
3.23282e-07
0.000416315
0.000499738
0.00706312
1.82887e-08
0.00343585
-0.00343581
0.000109767
-0.00156391
-5.19173e-06
0.000708043
-0.000539567
0.00126241
-0.000112555
0.000237852
-3.21724e-07
0.000118083
-8.36925e-05
-1.98193e-05
3.6408e-05
2.75279e-07
1.59593e-05
-1.05563e-05
-2.35945e-06
-1.44787e-05
-1.72333e-06
-1.70267e-07
-1.32797e-08
-1.02655e-08
-1.16949e-08
-5.58119e-09
2.92672e-08
4.668e-08
-6.24841e-08
-5.75814e-08
3.56837e-08
3.4272e-08
3.28716e-08
-4.47074e-08
-4.91781e-09
-3.12312e-08
-2.724e-09
5.62013e-10
8.04064e-10
3.17217e-09
2.44489e-09
-1.14662e-09
-1.34406e-10
-2.34815e-10
3.25604e-09
5.15088e-09
1.05813e-11
6.49161e-10
-1.209e-09
5.09642e-09
4.5528e-08
3.90447e-07
2.82998e-06
1.65917e-05
7.45436e-05
1.6769e-05
-0.000294946
-0.000185182
-3.20704e-05
-5.08116e-05
6.14815e-06
6.57426e-06
3.6429e-05
-0.000287725
0.000332799
2.35059e-09
0.000123493
-0.000123489
3.91374e-06
4.91748e-05
1.67403e-10
1.64306e-05
-1.64303e-05
5.63067e-07
-5.01698e-06
8.52087e-08
1.81705e-06
-1.11722e-06
4.64935e-06
-2.14414e-07
1.21886e-06
-7.41353e-06
-4.6162e-06
-5.6051e-07
-9.12481e-07
1.82789e-07
1.18213e-07
-5.14036e-07
1.48605e-08
1.79491e-07
-1.01017e-07
5.0735e-07
-1.54946e-08
2.30989e-08
-9.22317e-08
-5.63202e-08
-3.90876e-09
-7.09584e-09
2.75994e-09
-2.1321e-10
-2.92814e-10
7.86727e-12
5.1393e-10
-1.58267e-10
1.56343e-10
-7.17847e-11
-1.41277e-10
2.46282e-10
-5.13354e-10
-7.83073e-11
-1.07991e-10
2.43007e-11
-1.10881e-12
1.26794e-08
6.88527e-09
7.97509e-09
7.58092e-09
3.4007e-08
4.00415e-08
7.44886e-10
7.02709e-08
3.33195e-07
4.18257e-07
-1.16577e-09
-6.63153e-08
2.74516e-08
6.63121e-08
6.85911e-07
5.64513e-06
2.2787e-05
0.000117278
-3.12987e-05
-0.00101061
8.89546e-05
0.00043073
-0.000106705
-0.000175939
1.79831e-05
4.91873e-05
-1.87311e-05
-2.43243e-05
-3.51804e-05
2.36067e-06
1.05567e-05
-1.59585e-05
-2.7503e-07
-3.64106e-05
4.17753e-05
-3.91428e-06
-4.91734e-05
-6.57346e-06
-2.70019e-09
8.85717e-09
-7.90316e-08
0.00015973
-0.000159605
-0.000416221
-0.000499702
0.00641439
-0.00706308
-0.000306687
-0.000119756
-6.97632e-05
0.00033591
7.98357e-05
-1.25672e-08
1.9118e-05
-3.58534e-05
-3.5235e-06
-5.6437e-06
8.94612e-08
3.70518e-06
2.09134e-09
2.24296e-10
5.20265e-11
-1.42881e-11
-1.54658e-11
-2.3379e-11
-1.67202e-11
-1.472e-11
3.10989e-09
3.57955e-08
3.78541e-07
3.31382e-06
-2.2714e-06
-2.99245e-05
1.50787e-06
7.60837e-06
-2.79919e-06
7.0911e-06
1.93475e-06
5.78306e-06
-2.69579e-06
-3.15736e-06
-4.46651e-06
1.06085e-05
-2.83017e-06
-2.94909e-06
-1.69684e-06
2.28417e-06
2.03609e-05
0.00013315
5.50782e-05
9.4075e-06
1.18193e-06
1.1546e-07
1.7521e-07
5.2956e-09
8.76094e-09
2.53319e-10
-1.28094e-09
-7.69005e-10
1.99055e-10
-3.2742e-09
5.40183e-09
-7.45309e-10
4.3103e-09
-3.15666e-09
-1.9245e-09
1.27301e-09
-2.5747e-11
2.70272e-09
3.1326e-08
3.12948e-07
2.58118e-06