/*--------------------------------*- C++ -*----------------------------------*\
| =========                 |                                                 |
| \\      /  F ield         | OpenFOAM: The Open Source CFD Toolbox           |
|  \\    /   O peration     | Version:  2306                                  |
|   \\  /    A nd           | Website:  www.openfoam.com                      |
|    \\/     M anipulation  |                                                 |
\*---------------------------------------------------------------------------*/
FoamFile
{
    version     2.0;
    format      ascii;
    arch        "LSB;label=32;scalar=64";
    class       volScalarField;
    location    "0.2";
    object      gradTz;
}
// * * * * * * * * * * * * * * * * * * * * * * * * * * * * * * * * * * * * * //

dimensions      [0 -1 0 1 0 0 0];

internalField   nonuniform List<scalar> 
2658
(
-0.0487527
-0.0433489
-0.01436
-0.0115607
-0.0190017
-0.0190822
-0.0102423
-0.0101336
-0.0115557
-0.0190659
-0.0294923
-0.031951
-0.0516173
-0.0515335
-0.0489172
-0.0499044
-0.0526275
-0.0498454
-0.0485924
-0.0507438
-0.0506377
-0.0458218
-0.0505415
-0.0314429
-0.0523776
-0.0509625
-0.0480248
-0.0506406
-0.0548399
-0.0498509
-0.0548392
-0.0480247
-0.0509618
-0.0505403
-0.0523769
-0.0314419
-0.0325933
-0.0605107
-0.0458214
-0.0506388
-0.0507448
-0.0485925
-0.0498449
-0.0590034
-0.0279819
-0.0277585
-0.0294924
-0.0591089
-0.0499054
-0.0489175
-0.0515328
-0.0516179
-0.0466694
-0.0636795
-0.0516617
-0.048907
-0.0590683
-0.0278184
-0.0323246
-0.0498746
-0.0590689
-0.0489077
-0.0516621
-0.0636795
-0.031916
-0.0320131
-0.0294378
-0.0208356
-0.0186469
-0.0186465
-0.0114838
-0.0098784
-0.00549893
-0.00485489
-0.00268312
-0.00488155
-0.0048437
-0.0026785
-0.00223949
-0.00215911
-0.00482822
-0.00549688
-0.00983622
-0.0102729
-0.0115032
-0.00271684
-0.000498434
-7.31426e-05
-8.89382e-06
-9.23032e-07
-8.34491e-08
-7.66542e-09
-1.85175e-09
-1.79656e-09
-1.1716e-09
-2.75151e-09
-1.1857e-09
-1.20157e-09
-1.12507e-09
-9.97123e-10
-1.09594e-09
-1.07042e-09
-2.16704e-09
-1.0515e-09
-1.01307e-09
-1.75506e-09
-1.45206e-09
-5.35265e-09
-1.48273e-09
-1.2715e-09
-1.07071e-09
-7.89601e-10
-8.13382e-10
-7.32726e-10
-9.67242e-10
-1.14586e-09
-1.0107e-09
-1.70764e-09
-2.16956e-09
-1.15653e-09
-1.09871e-09
-1.4705e-09
-1.13026e-09
-1.11266e-09
-1.87533e-09
-1.83076e-09
-1.82948e-09
-2.76953e-09
-1.22147e-09
-1.21577e-09
-1.30068e-09
-1.17635e-09
-1.51649e-09
-1.40488e-09
-1.62196e-09
-1.80951e-09
-1.99126e-09
-3.86927e-09
-2.26167e-09
-2.2636e-09
-1.88956e-09
-1.75817e-09
-1.44309e-09
-1.40855e-09
-1.95914e-09
-1.40096e-09
-1.96638e-09
-3.39648e-09
-1.56788e-09
-1.71237e-09
-1.31953e-09
-2.26924e-09
-3.65375e-09
-1.29831e-09
-2.4659e-09
-2.5048e-09
-2.31581e-09
-2.25833e-09
-1.89942e-09
-2.2575e-09
-2.23109e-09
-1.83544e-09
-2.31709e-09
-2.01206e-09
-1.60933e-09
-1.92081e-09
-1.95426e-09
-2.14051e-09
-5.50682e-09
-1.01801e-08
-4.17711e-08
-1.55142e-07
-5.24174e-07
-1.74966e-06
-5.51612e-06
-1.70461e-05
-4.96002e-05
-0.000140404
-0.00037199
-0.000948637
-0.00224541
-0.00503239
-0.010422
-0.0198933
-0.0189981
-0.0185097
-0.0187423
-0.0190656
-0.0190013
-0.0115604
-0.0190824
-0.0294374
-0.0320132
-0.031916
-0.0319512
-0.0495311
-0.0115032
-0.00271681
-0.00049843
-7.3141e-05
-8.89353e-06
-9.22945e-07
-8.34716e-08
-7.67552e-09
-1.88155e-09
-1.87206e-09
-2.22332e-09
-6.49888e-09
-2.01566e-09
-2.04966e-09
-2.14127e-09
-1.79382e-09
-6.48109e-09
-1.80162e-09
-1.90579e-09
-1.91947e-09
-2.4629e-09
-1.49256e-09
-1.43869e-09
-1.53466e-09
-1.82988e-09
-1.78038e-09
-7.68825e-09
-6.90272e-09
-7.73441e-09
-6.88341e-09
-1.51726e-09
-1.50873e-09
-1.84311e-09
-5.3193e-09
-1.67276e-09
-1.60708e-09
-1.78067e-09
-1.82284e-09
-1.86321e-09
-2.02391e-09
-2.04381e-09
-5.96612e-09
-1.85575e-09
-1.26763e-09
-6.53864e-10
-6.68199e-10
-8.34136e-10
-9.76861e-10
-6.97453e-10
-6.7367e-10
-2.13387e-09
-7.02265e-09
-4.29652e-09
-3.72166e-09
-1.86964e-09
-1.1388e-09
-1.57324e-09
-3.75252e-09
-1.54046e-08
-4.74899e-08
-4.74321e-08
-5.10906e-08
-1.55196e-07
-1.70616e-07
-5.35264e-07
-1.74136e-06
-1.86963e-06
-5.59042e-06
-1.69808e-05
-1.77191e-05
-5.03215e-05
-0.00014061
-0.000141471
-0.000378594
-0.000955534
-0.000918819
-0.00229087
-0.00510604
-0.004632
-0.0105742
-0.0207585
-0.0182726
-0.0349873
-0.0280353
-0.0409026
-0.0409023
-0.0506395
-0.0559931
-0.0437179
-0.0394275
-0.0618585
-0.0366202
-0.0366206
-0.0369814
-0.0615804
-0.0373905
-0.0373907
-0.0366885
-0.0626487
-0.0496262
-0.0496262
-0.0712587
-0.106036
-0.0712588
-0.0726585
-0.104976
-0.0730423
-0.0854634
-0.0624043
-0.0602385
-0.0481598
-0.0548966
-0.0778904
-0.0662701
-0.0366884
-0.0357196
-0.0634324
-0.0485035
-0.0727007
-0.104991
-0.0730962
-0.0800195
-0.0753698
-0.0760102
-0.0753694
-0.0634325
-0.0481598
-0.0602389
-0.07304
-0.104976
-0.0726579
-0.0548974
-0.0778904
-0.0800191
-0.0730993
-0.10499
-0.0727015
-0.0485035
-0.0548736
-0.0717063
-0.106111
-0.0712932
-0.0499197
-0.0627049
-0.0365119
-0.0496269
-0.0446545
-0.0461938
-0.0118805
-0.00282514
-0.000514895
-7.45175e-05
-8.89315e-06
-9.0206e-07
-7.92681e-08
-6.16407e-08
-4.27211e-08
-4.41983e-08
-4.47018e-08
-4.73366e-08
-1.59211e-07
-5.62131e-07
-1.7559e-06
-5.77669e-06
-1.68678e-05
-5.09312e-05
-0.000137349
-0.000375774
-0.000919948
-0.00223944
-0.0048435
-0.0102728
-0.0115554
-0.0101335
-0.0102421
-0.00987861
-0.00482384
-0.00268839
-0.0048239
-0.00217441
-0.00223662
-0.00222077
-0.000923332
-0.000924557
-0.000472473
-0.000373818
-0.000470709
-0.000920001
-0.00110511
-0.000916954
-0.000903629
-0.000467482
-0.00036381
-0.000360887
-0.000906985
-0.00109483
-0.002175
-0.0026683
-0.00476342
-0.00993225
-0.011452
-0.0187424
-0.0208748
-0.0277587
-0.059109
-0.0548737
-0.0496264
-0.0365117
-0.0453066
-0.0221376
-0.0120291
-0.0116216
-0.00278705
-0.000510087
-7.42956e-05
-8.94107e-06
-9.16367e-07
-8.19603e-08
-7.69558e-09
-1.86737e-09
-1.78238e-09
-6.03131e-09
-1.51909e-09
-1.53706e-09
-2.58427e-09
-6.90106e-09
-1.09371e-08
-1.13117e-08
-1.18178e-08
-1.18537e-08
-1.08203e-08
-3.9871e-09
-1.39076e-08
-5.09025e-08
-7.15966e-08
-1.70531e-07
-1.64055e-07
-4.82903e-08
-6.81109e-08
-1.08268e-07
-1.02269e-08
-9.88001e-09
-9.1122e-09
-5.33853e-09
-1.13114e-08
-1.16927e-07
-7.69321e-08
-2.7432e-08
-9.96487e-08
-1.11872e-06
-9.08909e-07
-1.24051e-06
-1.15816e-05
-9.04611e-06
-3.5011e-06
-3.33774e-07
-3.15784e-07
-1.48857e-07
-1.51547e-07
-5.26942e-07
-5.29567e-07
-2.12733e-07
-1.57095e-07
-6.47755e-08
-1.0355e-07
-1.14014e-06
-1.09976e-05
-1.08492e-05
-8.89532e-05
-7.62705e-05
-9.24117e-05
-0.000611778
-0.000535003
-0.000234969
-3.12911e-05
-2.98802e-05
-1.63078e-05
-1.6355e-05
-4.89321e-05
-4.87965e-05
-2.16725e-05
-1.67362e-05
-5.49014e-06
-2.30864e-06
-1.73512e-06
-7.43212e-07
-1.68542e-06
-5.48798e-06
-2.23329e-06
-1.67277e-06
-5.16765e-07
-2.03153e-07
-2.76904e-07
-2.74969e-07
-1.55177e-07
-4.85712e-08
-4.58171e-08
-1.39857e-08
-1.17249e-08
-3.05761e-09
-1.50554e-08
-2.24886e-08
-2.29862e-08
-1.69675e-08
-2.73466e-08
-2.8558e-08
-7.39611e-09
-3.11871e-08
-6.47519e-09
-1.10479e-08
-1.19717e-07
-8.64987e-08
-3.68988e-07
-3.2629e-07
-1.19052e-06
-1.13907e-05
-9.25364e-05
-8.99328e-05
-0.000611331
-0.000605371
-0.00331815
-0.00302958
-0.00324028
-0.012986
-0.0133204
-0.00698274
-0.00144457
-0.00140456
-0.000906916
-0.00090356
-0.0021749
-0.00215901
-0.0011051
-0.000916912
-0.000361954
-0.000171481
-0.000136657
-6.52308e-05
-0.000134232
-0.000363785
-0.000168964
-0.000134286
-4.83759e-05
-2.11845e-05
-2.70123e-05
-2.94566e-06
-2.92475e-06
-1.74118e-06
-5.74344e-07
-5.35212e-07
-1.70658e-07
-1.74892e-07
-5.35033e-07
-1.78681e-06
-5.49116e-06
-5.49143e-06
-5.81202e-06
-1.71105e-05
-1.7899e-05
-4.90214e-05
-5.05186e-05
-0.000139918
-0.000142718
-0.000366614
-0.000364591
-0.00093862
-0.000924619
-0.00220393
-0.00209267
-0.00492239
-0.0046386
-0.010138
-0.00905133
-0.0186987
-0.0172172
-0.0339742
-0.0323397
-0.0339739
-0.0280351
-0.0349861
-0.0182721
-0.020758
-0.00928154
-0.0105738
-0.00463181
-0.00510587
-0.00214065
-0.00229078
-0.000918787
-0.00095551
-0.000371921
-0.000378577
-0.000141461
-0.000140604
-5.14118e-05
-5.03172e-05
-1.77173e-05
-1.69797e-05
-5.88595e-06
-5.58982e-06
-1.8694e-06
-1.89459e-06
-3.97521e-06
-4.11979e-07
-4.10882e-08
-5.46322e-09
-3.40343e-09
-1.42531e-08
-1.26176e-07
-1.22576e-06
-1.11094e-05
-8.76022e-05
-0.000572175
-0.00295086
-0.011321
-0.0292259
-0.0484254
-0.0437302
-0.04373
-0.0352453
-0.0473268
-0.0249981
-0.0139758
-0.0428444
-0.0324329
-0.0285985
-0.0207771
-0.0212381
-0.0211845
-0.0172168
-0.0186983
-0.00905105
-0.0101379
-0.0105005
-0.0117442
-0.00283355
-0.00209258
-0.0022039
-0.00492216
-0.00463859
-0.00618341
-0.00128285
-0.000924592
-0.000938572
-0.000364577
-0.000366614
-0.000430201
-0.000517424
-7.48207e-05
-8.92143e-06
-5.81167e-06
-1.71093e-05
-4.90208e-05
-0.00013991
-0.00014271
-0.000206171
-2.68145e-05
-8.81647e-06
-8.87845e-07
-7.8487e-08
-8.136e-08
-5.10397e-08
-1.66637e-07
-6.5249e-08
-1.66657e-07
-1.74839e-07
-5.34948e-07
-5.75831e-07
-1.78695e-06
-1.89472e-06
-2.92481e-06
-9.0777e-07
-5.75761e-07
-7.06055e-07
-2.74992e-07
-2.25125e-08
-1.17217e-08
-1.40454e-08
-4.58206e-08
-1.50161e-08
-1.54174e-08
-4.29966e-09
-3.74614e-09
-6.59592e-09
-1.59683e-09
-1.17788e-09
-1.98466e-09
-2.19356e-09
-3.75207e-09
-1.90728e-09
-1.09027e-09
-1.14986e-09
-7.04898e-10
-7.68055e-10
-7.89381e-10
-7.26937e-10
-1.09066e-09
-8.53788e-10
-7.10263e-10
-7.39567e-10
-7.48579e-10
-1.50923e-09
-1.16868e-09
-1.30193e-09
-1.12276e-09
-1.42749e-09
-1.0337e-09
-1.74901e-09
-1.40328e-09
-8.31775e-10
-9.34621e-10
-1.19798e-09
-1.22348e-09
-9.92133e-10
-1.41934e-09
-1.79692e-09
-2.07378e-09
-2.74313e-09
-6.80934e-09
-8.42334e-10
-2.04879e-09
-9.07629e-09
-8.65994e-09
-1.96809e-09
-8.38065e-08
-9.31341e-07
-9.11943e-06
-7.61659e-05
-7.45812e-05
-0.000520605
-0.00288221
-0.012044
-0.0407349
-0.039609
-0.0797324
-0.0437177
-0.0559944
-0.0886447
-0.0725834
-0.0725815
-0.0886452
-0.092462
-0.0468004
-0.0735026
-0.0605283
-0.062959
-0.0356527
-0.0486496
-0.05433
-0.0731954
-0.105381
-0.0738973
-0.0861394
-0.0602812
-0.078599
-0.0767228
-0.076714
-0.0784983
-0.0828655
-0.101047
-0.0785009
-0.0924623
-0.0735039
-0.0468001
-0.0385032
-0.0629588
-0.0486491
-0.0356526
-0.0360707
-0.0627048
-0.0499206
-0.0712923
-0.10611
-0.0717073
-0.0777463
-0.0763144
-0.0767141
-0.0770836
-0.0685111
-0.0385028
-0.0481904
-0.0649471
-0.0771695
-0.0763161
-0.0764608
-0.0777462
-0.0756311
-0.0662704
-0.0357198
-0.0453066
-0.0221376
-0.0208747
-0.0240288
-0.0139524
-0.00334282
-0.00685255
-0.00480632
-0.00476316
-0.00993218
-0.00983594
-0.00549681
-0.00482809
-0.00266814
-0.00693452
-0.00342344
-0.000626515
-0.00142336
-0.000229535
-3.04342e-05
-3.40056e-06
-3.31946e-06
-5.40523e-06
-7.36268e-06
-3.80031e-06
-1.79448e-06
-7.95271e-07
-1.81776e-06
-5.85322e-06
-7.85936e-06
-1.7179e-05
-1.70738e-05
-5.81596e-06
-7.75784e-06
-5.09051e-05
-6.67184e-05
-0.000138691
-0.000138068
-6.62493e-05
-0.000373808
-0.000472461
-0.000924552
-0.000923309
-0.000470694
-0.00222072
-0.00268307
-0.0048549
-0.00488142
-0.00267845
-0.00750213
-0.0143173
-0.0434048
-0.0423181
-0.0526291
-0.0238178
-0.0324836
-0.0268957
-0.0137602
-0.0143596
-0.00344883
-0.000634362
-9.43845e-05
-1.17699e-05
-1.26167e-06
-9.87305e-07
-3.58027e-06
-2.36991e-06
-1.81276e-06
-8.01301e-07
-1.81286e-06
-5.70714e-06
-7.87379e-06
-1.71176e-05
-1.71167e-05
-5.70719e-06
-9.13881e-06
-9.50964e-07
-8.78318e-08
-2.50921e-08
-1.79523e-08
-2.03527e-08
-1.46154e-08
-5.68747e-09
-1.46457e-08
-5.21716e-08
-7.46458e-08
-1.7143e-07
-1.71484e-07
-5.21441e-08
-3.53857e-08
-1.08888e-08
-3.88301e-09
-3.89994e-09
-1.97073e-09
-3.25994e-09
-1.09521e-08
-1.39647e-08
-4.05505e-09
-1.08512e-08
-4.82399e-08
-7.15779e-08
-1.64001e-07
-1.7048e-07
-5.0855e-08
-2.04372e-08
-2.50381e-08
-2.29644e-08
-7.92844e-08
-4.86209e-08
-4.17479e-08
-6.16411e-08
-1.48834e-07
-2.03243e-07
-5.2699e-07
-7.43302e-07
-1.73531e-06
-2.30874e-06
-5.49061e-06
-5.77699e-06
-7.75849e-06
-1.7075e-05
-1.71796e-05
-7.86007e-06
-5.81644e-06
-1.79473e-06
-1.81785e-06
-7.95353e-07
-5.71982e-07
-7.76165e-07
-1.75605e-06
-5.6226e-07
-5.29706e-07
-1.57131e-07
-2.12832e-07
-1.59177e-07
-6.80858e-08
-4.73072e-08
-4.46475e-08
-6.47865e-08
-1.5159e-07
-4.41652e-08
-4.27651e-08
-1.08462e-08
-1.68478e-08
-1.11857e-08
-3.34497e-09
-1.17032e-08
-1.78602e-08
-1.17919e-08
-3.19449e-09
-2.23656e-09
-2.22246e-09
-7.34591e-09
-2.85109e-08
-2.73077e-08
-2.74739e-08
-1.13491e-08
-5.51176e-09
-4.10755e-08
-4.11963e-07
-1.16917e-07
-1.24079e-06
-3.97573e-06
-3.39778e-05
-1.15842e-05
-9.2426e-05
-0.000245416
-0.000245397
-3.3974e-05
-1.78978e-05
-0.00143444
-0.00143454
-0.000611842
-0.00324047
-0.00645171
-0.00645131
-0.0204586
-0.0204594
-0.0129868
-0.0352468
-0.0473332
-0.0249992
-0.0198945
-0.0114233
-0.0189983
-0.0207772
-0.0279819
-0.0324835
-0.0446546
-0.046194
-0.0118807
-0.0028252
-0.000514908
-7.45203e-05
-8.89351e-06
-9.02148e-07
-5.74418e-07
-5.24223e-07
-7.2105e-07
-1.67293e-06
-2.2336e-06
-5.48838e-06
-7.54242e-06
-1.67373e-05
-2.16733e-05
-4.87998e-05
-5.09333e-05
-6.62534e-05
-0.000138074
-0.000138691
-6.67215e-05
-5.09073e-05
-5.12178e-05
-2.19796e-05
-4.98922e-05
-6.68727e-05
-0.000138152
-0.000138151
-4.98925e-05
-2.19795e-05
-5.12153e-05
-3.12334e-05
-1.16761e-05
-1.27047e-06
-1.26833e-07
-1.29416e-08
-3.5409e-08
-1.10679e-08
-2.37868e-09
-1.19708e-09
-1.46012e-09
-1.59638e-09
-1.31627e-09
-1.4887e-09
-2.75796e-09
-1.12196e-09
-1.45565e-09
-1.84174e-09
-2.23295e-09
-6.80365e-09
-2.3696e-09
-2.41555e-09
-6.5283e-09
-1.02086e-08
-9.80038e-09
-9.12086e-09
-1.63235e-09
-1.9216e-09
-6.92561e-09
-2.21073e-09
-1.79305e-09
-2.9193e-09
-1.0193e-08
-3.10473e-09
-5.55469e-09
-1.93766e-09
-1.93197e-09
-5.44568e-09
-9.96857e-08
-7.70334e-08
-3.33835e-07
-1.55264e-07
-3.15927e-07
-5.16956e-07
-1.11892e-06
-9.09117e-07
-3.50183e-06
-1.74979e-06
-5.51681e-06
-7.36337e-06
-1.63094e-05
-2.11858e-05
-4.83809e-05
-4.89355e-05
-6.52363e-05
-0.000136665
-0.000171483
-0.000361981
-0.000375787
-0.000137357
-0.000229556
-0.000226187
-0.000134299
-0.000168975
-0.000134243
-7.42971e-05
-8.94137e-06
-9.16448e-07
-8.19588e-08
-2.76946e-07
-2.94576e-06
-2.70126e-05
-2.6815e-05
-0.000206174
-0.000208032
-0.000208029
-0.00129993
-0.00109475
-0.00216197
-0.00263357
-0.00630345
-0.00546229
-0.00991738
-0.0114228
-0.00651885
-0.00134364
-0.000216011
-2.82768e-05
-3.11784e-06
-2.97386e-07
-2.23824e-07
-5.78436e-07
-5.67988e-07
-5.68e-07
-5.78479e-07
-2.23874e-07
-2.97421e-07
-3.11793e-06
-2.36994e-06
-5.85363e-06
-3.58058e-06
-3.62389e-07
-1.19709e-07
-1.26177e-06
-1.17706e-05
-3.12346e-05
-3.36029e-05
-3.80072e-06
-3.40102e-06
-3.32001e-06
-5.40586e-06
-1.08511e-05
-9.0484e-06
-3.12977e-05
-1.70483e-05
-4.96051e-05
-6.39613e-05
-0.000140418
-0.000372017
-0.000459897
-0.000948726
-0.00224554
-0.00263377
-0.00480658
-0.00546241
-0.00991776
-0.0104224
-0.00928191
-0.00503268
-0.00214074
-0.00698346
-0.00144475
-0.000235009
-7.62896e-05
-8.89709e-05
-0.000605489
-0.000535136
-0.00331868
-0.00303015
-0.0139771
-0.0133205
-0.0428466
-0.0324331
-0.0325938
-0.0605125
-0.0602818
-0.0738968
-0.10538
-0.073196
-0.0543303
-0.059004
-0.0285992
-0.0238185
-0.0185103
-0.0116216
-0.00278709
-0.000510098
-0.000526071
-0.00289159
-0.00630349
-0.00618345
-0.00128286
-0.00129995
-0.00134365
-0.000512723
-7.51897e-05
-0.000216013
-2.82771e-05
-0.000172702
-0.000376309
-0.000366523
-0.00047405
-0.000920538
-0.000920531
-0.000366523
-0.000172699
-0.000376298
-0.000232501
-0.000251149
-8.00957e-05
-3.36005e-05
-9.63257e-06
-0.00154686
-0.000557586
-0.00143116
-0.00223658
-0.00217442
-0.00110836
-0.00279023
-0.0116229
-0.0446529
-0.0396029
-0.0369814
-0.0444685
-0.0212381
-0.0211847
-0.0481908
-0.0394277
-0.0685107
-0.0649472
-0.0771693
-0.0785986
-0.0605303
-0.0861396
-0.0767236
-0.0764619
-0.0775333
-0.049531
-0.0278182
-0.0240011
-0.0140452
-0.00694135
-0.00549888
-0.0240008
-0.0433488
-0.0487539
-0.0514163
-0.042368
-0.0498748
-0.0526604
-0.0208355
-0.00338652
-0.000624681
-9.3157e-05
-0.000232504
-9.43845e-05
-0.000634342
-0.00143118
-0.00110837
-0.0015469
-0.000251157
-9.25457e-05
-1.13922e-05
-1.19078e-06
-1.08286e-07
-1.03569e-07
-1.14035e-06
-1.0999e-05
-2.98857e-05
-1.63564e-05
-8.99452e-05
-0.000611403
-0.00140475
-0.0021621
-0.00685305
-0.00693477
-0.00142352
-0.000626543
-0.00342366
-0.0033432
-0.0139531
-0.0423194
-0.0240287
-0.0143181
-0.043405
-0.0268962
-0.00750232
-0.00694153
-0.00344884
-0.00314882
-0.0137606
-0.00055767
-3.04377e-05
-1.68689e-05
-3.26386e-07
-3.68972e-07
-3.12132e-08
-8.63916e-08
-9.87692e-07
-9.63472e-06
-8.01179e-05
-0.00651887
-0.00314825
-0.000371946
-5.14156e-05
-5.88659e-06
-1.6856e-06
-3.6236e-07
-5.71995e-07
-7.76082e-07
-8.88195e-10
-7.81943e-10
-1.3991e-09
-1.35873e-09
-1.09418e-09
-1.09816e-09
-1.28321e-09
-1.19475e-09
-1.00221e-09
-1.99965e-09
-1.77034e-09
-3.87563e-09
-3.70129e-09
-2.06451e-09
-3.36649e-09
-1.59705e-09
-1.43223e-09
-0.000226148
-0.000360857
-0.000459862
-0.0114515
-0.0360706
-0.0444684
-0.0756271
-1.77952e-09
-8.70663e-10
-5.05169e-05
-6.01708e-05
-7.00152e-06
-0.00244808
-6.39538e-05
-0.000467448
-7.21012e-07
-7.54177e-06
-2.84876e-09
-3.42549e-09
-3.17187e-09
-0.0624044
-0.0854637
-0.0755851
-0.0762577
-0.0755843
-0.0466696
-0.0514171
6.42993e-09
1.10963e-08
1.19643e-07
7.14829e-08
4.81797e-08
5.08255e-08
1.70444e-07
1.63981e-07
6.80581e-08
4.72998e-08
1.1752e-08
3.20155e-09
2.21175e-09
1.84517e-09
2.27398e-09
2.30616e-09
1.89652e-09
2.26475e-09
2.02687e-09
1.68809e-09
1.92335e-09
1.89659e-09
2.14215e-09
3.1141e-09
3.83901e-09
1.89682e-09
1.12789e-09
1.81338e-09
1.47455e-09
8.39021e-10
1.48549e-09
1.09894e-09
1.90138e-09
2.01687e-09
3.69822e-09
2.96478e-09
1.0167e-08
5.50892e-09
1.86255e-09
1.91259e-09
1.59746e-09
1.95749e-09
2.27734e-09
6.97147e-09
1.1274e-08
1.17825e-08
1.17925e-08
7.36562e-09
2.24243e-09
2.20487e-09
1.88473e-09
2.25536e-09
2.43001e-09
7.00635e-09
2.53581e-09
3.33894e-09
1.09176e-08
1.46408e-08
5.7237e-09
3.95193e-09
1.09451e-08
3.36808e-09
2.44546e-09
6.93725e-09
1.08952e-08
4.09877e-09
1.39076e-08
2.04274e-08
5.21343e-08
5.2113e-08
7.46942e-08
1.71476e-07
2.23806e-07
5.78372e-07
7.95216e-07
5.71947e-07
5.62213e-07
7.76011e-07
1.75577e-06
1.73508e-06
5.29551e-07
2.12695e-07
1.57009e-07
1.59117e-07
8.34442e-08
9.22955e-07
8.89325e-06
7.31389e-05
0.000498416
0.00271676
0.011503
0.049531
0.0634323
0.0485037
0.0727024
0.0548735
0.071707
0.106111
0.0712927
0.0731955
0.105383
0.0738965
0.0602815
0.0861394
0.0735027
0.0605289
0.0385029
0.0481904
0.0468004
0.0924623
0.0886446
0.0725834
0.101047
0.0725809
0.0886449
0.0924617
0.0735033
0.0605291
0.0602818
0.0861395
0.0738966
0.10538
0.0731956
0.071293
0.0499199
0.049627
0.0485036
0.0548737
0.0717071
0.0727025
0.10499
0.0730993
0.0854641
0.07304
0.104977
0.0726585
0.0712586
0.0548973
0.0496261
0.0496262
0.0712588
0.0726588
0.104976
0.0730426
0.0854636
0.0624042
0.073097
0.104991
0.0515333
0.0516168
0.0636789
0.0466688
0.0516619
0.0514166
0.0489072
0.0498744
0.05266
0.0498745
0.0323243
0.0278182
0.0278182
0.0590678
0.0489068
0.0514158
0.0516619
0.0466702
0.0516176
0.0515324
0.0489173
0.0499041
0.0526271
0.0498451
0.0485919
0.0507438
0.0506371
0.0458219
0.0505401
0.0605115
0.0325935
0.019894
0.0104222
0.00503265
0.00224547
0.000948714
0.00037201
0.000140417
4.96036e-05
1.70476e-05
5.51646e-06
1.74972e-06
5.24221e-07
1.55222e-07
4.18031e-08
4.27294e-08
4.41757e-08
4.46664e-08
4.73058e-08
4.81641e-08
7.15194e-08
5.08197e-08
1.39589e-08
4.11985e-09
1.09226e-08
3.23303e-09
7.69258e-09
8.34607e-08
9.22972e-07
8.89363e-06
7.31408e-05
0.000498426
0.00271678
0.0115031
0.049531
0.0634326
0.0357199
0.0366883
0.0453066
0.0373908
0.0373905
0.0366883
0.0357197
0.0453065
0.0365117
0.0496264
0.04992
0.05433
0.0486488
0.062959
0.0356527
0.0360707
0.0627048
0.0446545
0.0461939
0.0407349
0.0461939
0.0629589
0.0385028
0.0394273
0.0481904
0.0437177
0.0437177
0.0394272
0.0618586
0.0366207
0.0369814
0.0369812
0.0444684
0.0366203
0.0649469
0.0770841
0.0767135
0.076723
0.0785997
0.0784991
0.0828659
0.0797317
0.0396088
0.0280348
0.052377
0.0509614
0.0480241
0.0548395
0.0409018
0.0339734
0.0186982
0.018698
0.00905109
0.0105737
0.00463171
0.00510585
0.00229078
0.00091878
0.000955504
0.000378579
0.000141462
0.000140605
5.03193e-05
1.77176e-05
1.69802e-05
5.59008e-06
1.86935e-06
1.74115e-06
5.35278e-07
1.70748e-07
1.55183e-07
4.57592e-08
1.39828e-08
1.17938e-08
4.30623e-09
3.78003e-09
3.74742e-09
1.75189e-09
1.00255e-09
1.73104e-09
1.89832e-09
1.74899e-09
1.88004e-09
1.9023e-09
2.06067e-09
2.02116e-09
2.14799e-09
2.05275e-09
2.12553e-09
2.09855e-09
2.19964e-09
2.20458e-09
1.94278e-09
1.86716e-09
1.39362e-09
1.38893e-09
1.48907e-09
1.61904e-09
1.34992e-09
1.43512e-09
1.26015e-09
1.39308e-09
1.27101e-09
1.76304e-09
1.74826e-09
1.76189e-09
2.09178e-09
2.83368e-09
1.2098e-09
1.28077e-09
1.28349e-09
1.64473e-09
1.33477e-09
1.84355e-09
1.81317e-09
1.74154e-09
1.81009e-09
2.73376e-09
7.681e-09
6.92026e-09
7.92502e-08
9.02121e-07
8.89332e-06
7.45194e-05
0.000514901
0.00282517
0.0118806
0.0114232
0.0189982
0.0185099
0.0187422
0.0190655
0.0102727
0.00484344
0.00223941
0.00091995
0.000375772
0.00013735
5.09311e-05
1.68681e-05
5.77663e-06
1.75593e-06
5.62162e-07
1.59114e-07
6.79603e-08
1.63954e-07
1.7043e-07
1.71476e-07
5.67929e-07
8.0108e-07
5.67917e-07
1.81268e-06
1.81776e-06
1.79441e-06
5.81573e-06
5.85308e-06
7.85908e-06
1.70729e-05
7.75737e-06
5.77624e-06
2.30851e-06
5.48982e-06
5.48768e-06
7.54125e-06
1.63539e-05
1.63067e-05
5.40501e-06
2.23327e-06
1.68536e-06
7.43175e-07
5.26821e-07
1.51498e-07
6.48587e-08
4.47516e-08
1.78873e-08
1.17322e-08
7.33353e-09
2.68414e-09
1.16754e-09
1.36178e-09
1.17681e-09
1.45177e-09
1.259e-09
1.45984e-09
1.29406e-09
1.5195e-09
1.96729e-09
1.83589e-09
3.90563e-09
1.8832e-09
1.9021e-09
1.85783e-09
2.12335e-09
1.91083e-09
1.93216e-09
1.86671e-09
6.52189e-09
2.13408e-09
9.05804e-09
8.78387e-08
9.5093e-07
9.13866e-06
7.51885e-05
0.000512717
0.0027902
0.0116228
0.0446529
0.0626487
0.07601
0.0753694
0.0756295
0.077746
0.0764631
0.10611
0.077169
0.0486499
0.0356527
0.0360704
0.0444684
0.0212381
0.020777
0.0279819
0.0277584
0.0294922
0.0319158
0.0320131
0.0294373
0.0190821
0.0115604
0.010242
0.0101334
0.0190011
0.0115553
0.0143172
0.0434047
0.0423186
0.042846
0.0473325
0.035246
0.0129862
0.0133215
0.0249987
0.0139775
0.00331827
0.00302988
0.00324074
0.000611861
0.000535092
0.00144475
0.00698317
0.00685271
0.00991765
0.00993204
0.00476322
0.00482807
0.00549679
0.00983595
0.0114517
0.0116216
0.0446546
0.0627047
0.0365119
0.0662705
0.0763162
0.0649469
0.0685115
0.0468
0.0559923
0.0506399
0.0437289
0.0484246
0.0292255
0.0113207
0.00295079
0.000572195
8.76091e-05
1.11104e-05
1.22574e-06
1.26177e-07
1.42625e-08
3.31109e-09
5.52345e-09
5.45355e-09
1.13616e-08
1.16983e-07
1.24072e-06
1.15839e-05
9.24283e-05
7.62832e-05
0.000235009
0.000605428
8.89643e-05
1.08503e-05
9.04745e-06
3.1297e-05
2.98822e-05
4.83783e-05
4.89327e-05
1.63554e-05
1.67364e-05
2.16724e-05
4.87972e-05
0.000136658
0.000171478
0.000361959
0.000916908
0.0011051
0.00215904
0.00266815
0.00217492
0.000903579
0.0010948
0.00216203
0.00480637
0.00546235
0.00630344
0.00278705
0.000510086
0.000467455
0.000363791
0.000134235
0.000168967
0.000360872
0.000906936
0.000459886
0.00140462
0.00334293
0.0139522
0.0238177
0.0285987
0.0590034
0.0543302
0.0324329
0.0240284
0.0591085
0.0268956
0.0487524
0.0433484
0.0143596
0.0137621
0.00750171
0.00693434
0.0034234
0.000626498
0.000611344
8.99365e-05
1.09978e-05
1.14016e-06
1.11881e-06
9.0902e-07
3.50168e-06
3.31954e-06
5.40539e-06
5.48803e-06
1.68545e-06
1.73519e-06
2.30864e-06
5.49031e-06
7.54197e-06
8.94115e-06
7.42956e-05
6.52326e-05
2.70123e-05
2.11847e-05
1.63083e-05
7.36301e-06
2.68151e-05
5.03222e-05
5.14159e-05
0.000140613
0.000141473
0.000378608
0.000371941
0.000955558
0.000918843
0.00229092
0.00214073
0.005106
0.00463194
0.010574
0.00928182
0.0207581
0.0182723
0.0349863
0.0314421
0.017217
0.0211845
0.0211845
0.0349862
0.0182722
0.020758
0.0172168
0.0339737
0.0280347
0.0409019
0.0323393
0.0548397
0.0480241
0.0509619
0.0505403
0.052377
0.0506396
0.0559939
0.0685113
0.0785001
0.0767151
0.078599
0.0767207
0.0771686
0.0763143
0.0775334
0.0615805
0.0396029
0.0120291
0.012044
0.0117441
0.00905119
0.0101377
0.0049223
0.00220392
0.00093864
0.000938588
0.000364589
0.000366618
0.000142712
0.000139916
5.05185e-05
4.90224e-05
1.78988e-05
1.71104e-05
5.81184e-06
5.49146e-06
1.89461e-06
1.7868e-06
5.75796e-07
5.3496e-07
1.74994e-07
1.66609e-07
5.10565e-08
4.74588e-08
1.50035e-08
1.54311e-08
6.48973e-09
1.5393e-08
4.29413e-09
1.17258e-08
1.40504e-08
4.5892e-08
4.86387e-08
1.55223e-07
1.70713e-07
5.35254e-07
5.74428e-07
1.74131e-06
1.86947e-06
5.59037e-06
5.88634e-06
1.69809e-05
1.77188e-05
1.78993e-05
1.71107e-05
7.00201e-06
5.49144e-06
1.78696e-06
5.34942e-07
1.66649e-07
6.53128e-08
4.75816e-08
1.49954e-08
2.24743e-08
2.7501e-07
1.74903e-07
4.1198e-07
3.97587e-06
3.39801e-05
0.000245433
0.00143457
0.00645152
0.0204586
0.0204584
0.0437297
0.0352459
0.0129859
0.00645128
0.0101378
0.00463849
0.00492213
0.00209255
0.0022039
0.000924595
0.00128284
0.00283354
0.00209262
0.00244807
0.000517425
0.000364601
0.000366622
0.000139922
4.90231e-05
5.05201e-05
7.48213e-05
6.01743e-05
8.92155e-06
5.81198e-06
9.0776e-07
5.75768e-07
7.06018e-07
8.13273e-08
5.10265e-08
7.07951e-09
2.12252e-09
1.6999e-09
1.00002e-09
8.00779e-10
6.96576e-10
7.82498e-10
9.66294e-10
1.0586e-09
1.38625e-09
1.03076e-09
1.70107e-09
1.54606e-09
1.55019e-09
1.5802e-09
2.63282e-09
1.02919e-09
1.13495e-09
9.43835e-10
1.1429e-09
2.07033e-09
8.73507e-10
6.05673e-10
5.97849e-10
5.60888e-10
6.88209e-10
9.41741e-10
6.27965e-10
1.04317e-09
9.0529e-10
1.3985e-09
1.5044e-09
1.52267e-09
1.57542e-09
1.59351e-09
1.88674e-09
1.83158e-09
1.83008e-09
1.21696e-09
1.56608e-09
1.25446e-09
1.22189e-09
8.34734e-10
7.42296e-10
6.2066e-10
1.13238e-09
1.51368e-09
5.39053e-09
1.31793e-09
1.00554e-09
8.45021e-10
7.02615e-10
7.18962e-10
1.28886e-09
1.13295e-09
1.76713e-09
5.43444e-09
2.24847e-08
7.84557e-08
8.87866e-07
8.81637e-06
7.4581e-05
0.000520604
0.0028822
0.00618341
0.00463866
0.00618338
0.0118806
0.00928173
0.0198936
0.0114229
0.00991741
0.00546227
0.00476308
0.00266807
0.00215896
0.00110505
0.000916874
0.000919918
0.000470676
0.00037379
0.000376288
0.000472441
0.000923263
0.00222064
0.0022365
0.00268295
0.00488124
0.00267832
0.00223936
0.00484341
0.00482793
0.00983587
0.0054968
0.0102725
0.0115554
0.0101333
0.0102419
0.0115602
0.0190011
0.0190655
0.018742
0.0114516
0.00993197
0.0185097
0.0189979
0.0285986
0.020777
0.0279817
0.0324833
0.0277584
0.0208746
0.029492
0.0319508
0.0319157
0.0294374
0.0320126
0.0433484
0.042367
0.0240004
0.0208354
0.0186463
0.0114836
0.00987823
0.00987833
0.00549873
0.00485478
0.00268297
0.00223654
0.00222069
0.00488128
0.0026784
0.000923302
0.000472461
0.000376297
0.000373806
0.000470702
0.00013807
6.67198e-05
5.12154e-05
5.0905e-05
6.62506e-05
9.25389e-05
1.13911e-05
1.19058e-06
1.0823e-07
1.03615e-07
9.9758e-08
7.71223e-08
3.33876e-07
3.15909e-07
5.16851e-07
5.26936e-07
1.51594e-07
1.57117e-07
2.12749e-07
5.296e-07
7.43268e-07
9.16397e-07
8.19258e-08
6.48444e-08
2.29424e-08
1.68956e-08
1.09348e-08
2.85347e-09
9.10705e-09
5.35302e-09
2.7494e-08
2.73265e-08
9.85885e-09
1.8703e-09
3.4471e-09
2.8544e-08
3.2628e-07
3.40065e-06
3.0435e-05
0.000229537
0.00142338
0.00154685
0.00314873
0.0034487
0.000634284
0.00055765
0.000251148
0.000232487
0.00143109
0.000924524
0.0009205
0.000474042
0.000366512
0.000366514
0.000172696
0.000138147
6.68686e-05
4.98901e-05
4.989e-05
2.19787e-05
1.71785e-05
7.85947e-06
5.85338e-06
5.81612e-06
1.70743e-05
7.75793e-06
3.36014e-05
8.0115e-05
9.43813e-05
1.17699e-05
9.63223e-06
3.80042e-06
3.58026e-06
1.81778e-06
7.95276e-07
5.78431e-07
5.71933e-07
1.79453e-06
7.76031e-07
3.68833e-07
9.87375e-07
1.26171e-06
1.19611e-07
8.63256e-08
3.12494e-08
1.02715e-08
6.56455e-09
1.11216e-08
2.44696e-09
1.28525e-09
1.64187e-09
1.35868e-09
1.54901e-09
1.25689e-09
2.48989e-09
2.00953e-09
3.69763e-09
1.29276e-08
1.26748e-07
3.62334e-07
2.23871e-07
2.97389e-07
2.76949e-07
2.03177e-07
1.48902e-07
6.16233e-08
2.94568e-06
2.23334e-06
1.67279e-06
7.21071e-07
2.92476e-06
1.89467e-06
2.92471e-06
2.68146e-05
0.000206171
0.000514888
0.00282513
0.00214062
0.00503231
0.00263353
0.00216192
0.00109475
0.000903527
0.000467429
0.000361943
0.00017147
0.000136649
0.000137342
6.6246e-05
5.09025e-05
5.12141e-05
6.67159e-05
0.000138062
0.000138685
0.000172694
0.000138146
0.000232485
0.00062463
0.00338637
0.0140448
0.006941
0.0069411
0.0239999
0.0208354
0.0190818
0.0186464
0.0221376
0.0212381
0.00630344
0.0116215
0.00278703
0.00289158
0.00129994
0.00128286
0.000924625
0.000206174
0.00014272
0.00020803
0.000526068
7.61654e-05
9.11931e-06
9.31365e-07
8.37669e-08
8.62392e-09
7.79472e-09
6.93606e-09
7.92197e-08
9.02102e-07
8.89296e-06
7.45169e-05
5.14118e-05
0.000140402
6.39528e-05
4.83741e-05
2.11832e-05
4.89293e-05
6.52273e-05
4.87937e-05
2.16712e-05
1.6735e-05
1.68666e-05
5.09281e-05
3.04306e-05
2.98768e-05
3.12903e-05
9.24191e-05
0.000611802
0.00324029
0.00143444
0.000245408
3.39771e-05
3.97558e-06
1.15832e-05
1.24067e-06
4.11968e-07
4.10645e-08
1.1691e-07
1.13511e-08
5.39608e-09
2.74249e-08
4.17652e-08
6.15145e-08
4.26922e-08
1.68557e-08
1.12893e-08
3.35927e-09
7.70997e-09
8.19084e-08
9.16367e-07
8.94078e-06
7.42939e-05
0.00051008
0.00129993
0.000208028
0.000168958
0.000134281
0.000134225
0.00036377
0.00036085
0.000371984
0.000459842
0.000948633
0.000371919
0.00224537
0.00144452
0.00698262
0.010422
0.0249987
0.0325933
0.0324328
0.0506386
0.045821
0.060511
0.0473283
0.0428439
0.0507435
0.0485924
0.0590032
0.0498449
0.0526293
0.0499053
0.0591084
0.0489175
0.0434042
0.0423178
0.023818
0.0139761
0.0133209
0.003318
0.00302959
0.000605334
0.00053499
0.000234963
0.000226128
0.00140449
0.000906883
0.00217486
0.00685234
0.00480625
0.0139518
0.00334274
0.000611281
8.99243e-05
8.89453e-05
7.62678e-05
1.08477e-05
7.36232e-06
5.51598e-06
1.74955e-06
7.20976e-07
5.16852e-07
2.03255e-07
1.48814e-07
1.55197e-07
4.85489e-08
5.2424e-07
5.74435e-07
3.33808e-07
3.50099e-06
9.04578e-06
3.31897e-06
1.67253e-06
1.11857e-06
9.08847e-07
9.96769e-08