/*--------------------------------*- C++ -*----------------------------------*\
| =========                 |                                                 |
| \\      /  F ield         | OpenFOAM: The Open Source CFD Toolbox           |
|  \\    /   O peration     | Version:  2306                                  |
|   \\  /    A nd           | Website:  www.openfoam.com                      |
|    \\/     M anipulation  |                                                 |
\*---------------------------------------------------------------------------*/
FoamFile
{
    version     2.0;
    format      ascii;
    arch        "LSB;label=32;scalar=64";
    class       volScalarField;
    location    "280";
    object      k;
}
// * * * * * * * * * * * * * * * * * * * * * * * * * * * * * * * * * * * * * //

dimensions      [0 2 -2 0 0 0 0];

internalField   nonuniform List<scalar> 
12225
(
0.571498
0.987649
1.28116
1.45558
1.54167
1.57742
1.57633
1.56599
1.54776
1.52388
1.5005
1.47801
1.45794
1.43899
1.42336
1.40763
1.39698
1.38226
0.438453
0.496875
0.521954
0.534903
0.542884
0.547406
0.550243
0.55222
0.555997
0.559477
0.565529
0.571176
0.579501
0.58696
0.596705
0.605397
0.615182
0.625775
0.387571
0.417489
0.424189
0.421528
0.41504
0.40497
0.393799
0.382812
0.371928
0.362429
0.353238
0.346113
0.338975
0.334344
0.329112
0.326703
0.323064
0.32235
0.376181
0.384816
0.388124
0.387415
0.385434
0.381138
0.375682
0.369562
0.363114
0.356562
0.350107
0.343801
0.337819
0.332061
0.326777
0.321677
0.317177
0.312706
0.374178
0.375374
0.376396
0.375929
0.374798
0.372507
0.369615
0.366136
0.362484
0.358469
0.354556
0.350368
0.34652
0.342382
0.338792
0.334818
0.331605
0.327843
0.373737
0.372544
0.371997
0.371082
0.369917
0.368266
0.366339
0.364031
0.36164
0.358967
0.356372
0.353535
0.350915
0.348046
0.345519
0.3427
0.340346
0.337624
0.373769
0.371726
0.370231
0.368831
0.367465
0.36594
0.364344
0.362551
0.360733
0.358749
0.356812
0.35473
0.352769
0.350664
0.348747
0.346671
0.34485
0.342829
0.373818
0.371563
0.369621
0.36786
0.36625
0.364663
0.363121
0.361521
0.359944
0.358297
0.356694
0.355025
0.353428
0.351768
0.350212
0.348587
0.347101
0.345522
0.373833
0.371554
0.369457
0.36751
0.365722
0.364025
0.362428
0.360861
0.359354
0.357851
0.3564
0.354942
0.35354
0.352129
0.350784
0.349424
0.348147
0.346841
0.373832
0.37156
0.369425
0.36741
0.365529
0.363752
0.362086
0.360492
0.35898
0.357515
0.356115
0.354747
0.353436
0.35215
0.350918
0.349705
0.348549
0.347403
0.37383
0.371561
0.369417
0.367384
0.365468
0.363652
0.361942
0.360316
0.358778
0.357309
0.355911
0.354569
0.353288
0.352053
0.350871
0.349728
0.348634
0.347573
0.373828
0.371559
0.369412
0.367375
0.365448
0.363619
0.361889
0.360247
0.35869
0.357209
0.355802
0.354459
0.35318
0.351957
0.350789
0.349669
0.348598
0.34757
0.373827
0.371557
0.369407
0.367369
0.365437
0.363603
0.361865
0.360213
0.358646
0.357156
0.355739
0.35439
0.353107
0.351883
0.350716
0.349601
0.348536
0.34752
0.373827
0.371555
0.369403
0.367362
0.365428
0.363591
0.361848
0.360192
0.358619
0.357123
0.3557
0.354345
0.353056
0.351828
0.350656
0.34954
0.348474
0.347458
0.373826
0.371553
0.369399
0.367357
0.36542
0.363581
0.361835
0.360176
0.358599
0.3571
0.355673
0.354314
0.353021
0.351788
0.350613
0.349493
0.348424
0.347405
0.373826
0.371552
0.369396
0.367352
0.365413
0.363572
0.361824
0.360163
0.358584
0.357081
0.355652
0.35429
0.352994
0.351758
0.35058
0.349457
0.348385
0.347363
0.373825
0.371551
0.369394
0.367349
0.365408
0.363566
0.361816
0.360152
0.358571
0.357067
0.355635
0.354271
0.352972
0.351735
0.350555
0.349429
0.348355
0.347331
0.373825
0.371551
0.369393
0.367347
0.365405
0.363561
0.36181
0.360145
0.358562
0.357056
0.355623
0.354258
0.352957
0.351718
0.350536
0.349409
0.348334
0.347308
0.373825
0.371551
0.369393
0.367347
0.365404
0.36356
0.361808
0.360143
0.358559
0.357052
0.355618
0.354252
0.35295
0.35171
0.350527
0.349399
0.348323
0.347296
0.373825
0.371551
0.369394
0.367348
0.365406
0.363562
0.361811
0.360146
0.358562
0.357056
0.355622
0.354256
0.352955
0.351715
0.350532
0.349405
0.348329
0.347302
0.373826
0.371552
0.369396
0.367351
0.36541
0.363567
0.361816
0.360152
0.35857
0.357065
0.355633
0.354268
0.352969
0.35173
0.35055
0.349423
0.348349
0.347323
0.373826
0.371553
0.369398
0.367355
0.365416
0.363575
0.361828
0.360168
0.358591
0.357091
0.355664
0.354306
0.353012
0.351779
0.350602
0.34948
0.348408
0.347383
0.373826
0.371555
0.369401
0.367363
0.365432
0.363605
0.361875
0.360237
0.358681
0.357203
0.355794
0.354451
0.353167
0.351939
0.350762
0.349635
0.348552
0.347513
0.373827
0.371555
0.369413
0.367418
0.365544
0.363793
0.362138
0.360572
0.359071
0.357632
0.35624
0.354896
0.353589
0.352323
0.35109
0.349894
0.348729
0.347601
0.373819
0.371564
0.369582
0.367846
0.366223
0.364712
0.363219
0.361753
0.360266
0.358787
0.357288
0.3558
0.354306
0.352833
0.351361
0.349924
0.348495
0.34711
0.373767
0.371946
0.370916
0.369978
0.368912
0.367767
0.366326
0.364737
0.362933
0.361062
0.35906
0.357054
0.354971
0.352925
0.350845
0.348825
0.346792
0.344839
0.374093
0.3752
0.37726
0.377562
0.377091
0.375807
0.373488
0.370864
0.367802
0.364686
0.361328
0.358027
0.354602
0.351291
0.347923
0.3447
0.341473
0.338414
0.377677
0.394076
0.402944
0.402354
0.400308
0.396046
0.390665
0.385166
0.379132
0.373302
0.367221
0.361475
0.355719
0.350305
0.345128
0.340198
0.335726
0.331324
0.405777
0.438976
0.451187
0.455808
0.459109
0.462259
0.464969
0.467226
0.46922
0.47084
0.472486
0.473922
0.47554
0.477066
0.479202
0.480825
0.483663
0.485376
0.479011
0.684926
0.865145
0.990809
1.09437
1.17584
1.23938
1.28342
1.31504
1.33208
1.34321
1.34355
1.34143
1.33632
1.32786
1.31776
1.30684
1.2954
0.00232103
0.00386215
0.0055688
0.00717465
0.00857752
0.00977543
0.0107963
0.0116701
0.0124255
0.0131315
0.0138311
0.0145326
0.0152566
0.0160197
0.01683
0.0176873
0.0185886
0.0195377
0.0205646
0.0217612
0.0232591
0.0250443
0.0270535
0.0292718
0.0317138
0.0344035
0.0373664
0.0406229
0.0441842
0.0480426
0.0521774
0.0565775
0.0612232
0.0660879
0.0711523
0.0763956
0.081803
0.0873599
0.0930558
0.0988829
0.104837
0.11092
0.117136
0.123498
0.130029
0.136763
0.14375
0.151065
0.158518
0.166128
0.173885
0.181801
0.189873
0.198106
0.206499
0.215056
0.223778
0.232666
0.24172
0.250942
0.260331
0.269887
0.279608
0.289494
0.299542
0.30975
0.320115
0.330634
0.341302
0.352115
0.363068
0.374156
0.385371
0.396709
0.40816
0.419719
0.431376
0.443124
0.454952
0.466852
0.478814
0.490827
0.50288
0.514963
0.527063
0.539169
0.551268
0.563349
0.575397
0.587399
0.59934
0.611205
0.622978
0.63464
0.646172
0.657553
0.66876
0.679769
0.690556
0.701103
0.711409
0.72152
0.731461
0.741138
0.750588
0.759786
0.768729
0.777402
0.785795
0.793897
0.801697
0.809185
0.81635
0.823185
0.829678
0.835823
0.84161
0.847033
0.852085
0.856759
0.86105
0.864951
0.868459
0.871568
0.874277
0.876583
0.878484
0.879981
0.881071
0.881754
0.882021
0.881911
0.881462
0.880528
0.87915
0.877351
0.875254
0.872834
0.869965
0.866743
0.863153
0.85921
0.854922
0.850299
0.845354
0.840091
0.834522
0.828658
0.822509
0.816088
0.809406
0.802477
0.795313
0.787926
0.780331
0.772541
0.764569
0.75643
0.748138
0.739708
0.731155
0.722498
0.713763
0.704996
0.696394
0.689654
0.685528
0.681705
0.677874
0.674007
0.670106
0.666171
0.662199
0.658176
0.65407
0.649803
0.64522
0.639853
0.632816
0.607709
0.00573906
0.00893611
0.0126773
0.0157113
0.0182701
0.0205313
0.0226081
0.0245795
0.0265054
0.0284318
0.030424
0.0325506
0.0348536
0.0373523
0.0400492
0.0429369
0.0460074
0.0492584
0.0526986
0.0563433
0.0602063
0.0643012
0.0686421
0.0732435
0.0781261
0.083315
0.0888356
0.0947101
0.100953
0.107567
0.114541
0.121873
0.129557
0.13759
0.145969
0.15467
0.163686
0.17301
0.182639
0.192569
0.202798
0.213325
0.224149
0.23527
0.246689
0.258406
0.27042
0.282727
0.295314
0.308189
0.321357
0.334823
0.348591
0.362667
0.377054
0.391757
0.40678
0.422127
0.437801
0.453805
0.470142
0.486814
0.503821
0.521165
0.538844
0.55686
0.575208
0.593888
0.612896
0.632228
0.651878
0.671841
0.692109
0.712675
0.73353
0.754664
0.776066
0.797725
0.819627
0.84176
0.864108
0.886657
0.909389
0.932288
0.955334
0.97851
1.00179
1.02517
1.04861
1.07209
1.0956
1.1191
1.14257
1.16598
1.1893
1.2125
1.23554
1.25839
1.281
1.30332
1.32528
1.34681
1.36791
1.38871
1.40918
1.42931
1.44906
1.46843
1.48738
1.50589
1.52394
1.5415
1.55856
1.57509
1.59107
1.60649
1.62132
1.63554
1.64914
1.66211
1.67441
1.68605
1.69701
1.70726
1.71682
1.72565
1.73376
1.74114
1.74778
1.75368
1.75884
1.76326
1.76694
1.76987
1.77193
1.77311
1.77365
1.77365
1.7728
1.7712
1.76888
1.76584
1.76209
1.75765
1.75253
1.74675
1.74032
1.73325
1.72557
1.71729
1.70844
1.69903
1.68908
1.67862
1.66767
1.65625
1.64438
1.6321
1.61943
1.60639
1.59301
1.57931
1.56535
1.55114
1.53679
1.52267
1.50889
1.49506
1.48112
1.4671
1.45301
1.43888
1.42471
1.41052
1.39628
1.38196
1.36739
1.35247
1.33573
1.30018
0.00960091
0.0145971
0.0196738
0.0236321
0.0269837
0.0300116
0.0328788
0.0356966
0.038551
0.0415139
0.0446466
0.0479973
0.0515978
0.0554631
0.0595948
0.0639866
0.0686299
0.0735186
0.0786518
0.0840356
0.0896828
0.095606
0.101818
0.108334
0.115176
0.122363
0.129917
0.137854
0.146189
0.154936
0.164113
0.173726
0.183781
0.194277
0.20521
0.216567
0.228341
0.240528
0.25312
0.266112
0.279498
0.293272
0.30743
0.321966
0.336877
0.352159
0.367809
0.383822
0.400199
0.416943
0.434057
0.451547
0.469417
0.487669
0.506309
0.52534
0.544766
0.564589
0.584814
0.605441
0.626472
0.647909
0.669752
0.692001
0.714653
0.737707
0.761159
0.785006
0.809243
0.833864
0.858862
0.884228
0.909955
0.936031
0.962445
0.989185
1.01624
1.04359
1.07122
1.09912
1.12726
1.15564
1.18422
1.21299
1.24192
1.27099
1.30018
1.32946
1.35881
1.38819
1.41758
1.44695
1.47626
1.50549
1.5346
1.56356
1.59233
1.62088
1.64918
1.67718
1.70486
1.73219
1.75916
1.78576
1.81195
1.83769
1.86296
1.88773
1.91196
1.93563
1.95871
1.98116
2.00296
2.02408
2.04449
2.06417
2.08309
2.10124
2.11858
2.1351
2.15077
2.16558
2.17951
2.19254
2.20467
2.21587
2.22613
2.23545
2.24383
2.25125
2.25771
2.26321
2.26775
2.27131
2.27385
2.27527
2.27582
2.27556
2.27428
2.27206
2.2689
2.26482
2.25983
2.25396
2.24721
2.23962
2.2312
2.22196
2.21194
2.20116
2.18964
2.17741
2.16449
2.15092
2.13673
2.12193
2.10657
2.09068
2.07429
2.05743
2.04014
2.02246
2.00442
1.98608
1.96753
1.94898
1.93052
1.91197
1.89331
1.87455
1.85573
1.83687
1.81802
1.79919
1.7804
1.76169
1.74297
1.72428
1.70421
1.67282
0.0129392
0.02053
0.0268916
0.0317007
0.0357581
0.0394451
0.0429716
0.0464753
0.0500585
0.0538019
0.057768
0.0620019
0.066531
0.0713663
0.0765064
0.0819428
0.0876647
0.0936643
0.0999388
0.106492
0.113332
0.120472
0.127932
0.135735
0.143908
0.152478
0.161471
0.170913
0.180824
0.191221
0.202113
0.213506
0.225398
0.237784
0.250655
0.264007
0.277836
0.292135
0.306894
0.322107
0.337765
0.353863
0.370393
0.387351
0.404733
0.422537
0.440759
0.459399
0.478458
0.497941
0.51785
0.538191
0.558968
0.580186
0.601848
0.62396
0.646525
0.669548
0.69303
0.716975
0.741385
0.766261
0.791603
0.817413
0.843687
0.870424
0.897621
0.925275
0.953379
0.981927
1.01091
1.04033
1.07016
1.1004
1.13103
1.16204
1.19342
1.22515
1.25721
1.28958
1.32225
1.35518
1.38836
1.42176
1.45535
1.48912
1.52302
1.55704
1.59113
1.62528
1.65944
1.69358
1.72767
1.76166
1.79554
1.82925
1.86276
1.89604
1.92904
1.96175
1.99411
2.0261
2.05769
2.08882
2.11948
2.14961
2.17918
2.20816
2.2365
2.26417
2.29113
2.31736
2.34281
2.36745
2.39125
2.41418
2.43622
2.45732
2.47748
2.49665
2.51482
2.53197
2.54808
2.56312
2.57708
2.58995
2.60171
2.61236
2.62188
2.63027
2.63753
2.64366
2.64865
2.65247
2.65511
2.65646
2.65682
2.65611
2.65426
2.65129
2.64722
2.64207
2.63587
2.62863
2.62037
2.61111
2.60089
2.58972
2.57763
2.56466
2.55083
2.53617
2.52072
2.50451
2.48757
2.46994
2.45166
2.43276
2.41328
2.39326
2.37275
2.35178
2.33041
2.30869
2.28672
2.26463
2.2425
2.22025
2.19789
2.17544
2.15293
2.13041
2.10793
2.08555
2.06332
2.04132
2.01958
1.9982
1.97598
1.94673
0.0155779
0.0263986
0.0341061
0.039803
0.0445793
0.0489065
0.0530401
0.0571437
0.0613347
0.0657014
0.0703095
0.0752041
0.0804115
0.0859415
0.0917926
0.0979566
0.104424
0.111189
0.118252
0.125619
0.133306
0.141332
0.149722
0.158507
0.167714
0.177373
0.187511
0.198148
0.209303
0.220986
0.233205
0.24596
0.259251
0.273072
0.28742
0.302288
0.317671
0.33356
0.349948
0.366829
0.384196
0.402042
0.420364
0.439158
0.458421
0.478152
0.498351
0.519019
0.540161
0.56178
0.583881
0.606468
0.629548
0.653126
0.677207
0.701795
0.726898
0.752517
0.778659
0.805326
0.832522
0.860248
0.888506
0.917297
0.946619
0.976472
1.00685
1.03776
1.06918
1.10112
1.13357
1.16651
1.19994
1.23384
1.2682
1.30301
1.33825
1.3739
1.40994
1.44634
1.4831
1.52018
1.55755
1.59519
1.63307
1.67116
1.70942
1.74782
1.78633
1.82491
1.86352
1.90213
1.94069
1.97916
2.01751
2.05569
2.09366
2.13138
2.16881
2.2059
2.24262
2.27892
2.31474
2.35006
2.38483
2.41899
2.45252
2.48535
2.51746
2.54879
2.57932
2.60898
2.63776
2.66561
2.69248
2.71836
2.7432
2.76698
2.78965
2.81121
2.8316
2.85083
2.86885
2.88565
2.90121
2.91552
2.92856
2.94031
2.95079
2.95996
2.96784
2.97442
2.9797
2.98367
2.98626
2.98744
2.9875
2.98627
2.98376
2.97999
2.97498
2.96875
2.96132
2.95271
2.94296
2.93208
2.92011
2.90708
2.89301
2.87795
2.86193
2.84498
2.82714
2.80844
2.78894
2.76866
2.74766
2.72597
2.70363
2.6807
2.65721
2.63323
2.6088
2.58398
2.55886
2.53355
2.50811
2.48254
2.45685
2.43106
2.40524
2.37943
2.35372
2.32817
2.30288
2.27797
2.25356
2.22978
2.2056
2.17671
0.0176122
0.0319353
0.0410548
0.0476673
0.053166
0.0581128
0.0628068
0.0674358
0.072131
0.0769892
0.082081
0.0874548
0.0931396
0.0991491
0.105486
0.112146
0.119128
0.12643
0.134058
0.142026
0.150352
0.159061
0.168182
0.177741
0.187769
0.19829
0.209327
0.220897
0.233014
0.245686
0.258917
0.272709
0.28706
0.301967
0.317428
0.333436
0.349987
0.367076
0.384697
0.402845
0.421517
0.44071
0.460421
0.48065
0.501395
0.522659
0.544443
0.566751
0.589587
0.612956
0.636864
0.661317
0.686321
0.711884
0.738011
0.76471
0.791986
0.819846
0.848295
0.877338
0.906979
0.937221
0.968068
0.999521
1.03158
1.06425
1.09752
1.13139
1.16587
1.20093
1.23658
1.2728
1.30959
1.34693
1.38481
1.42321
1.46211
1.50149
1.54134
1.58163
1.62232
1.6634
1.70484
1.7466
1.78864
1.83094
1.87346
1.91616
1.95899
2.00193
2.04491
2.08791
2.13088
2.17376
2.21652
2.2591
2.30147
2.34356
2.38533
2.42673
2.4677
2.50821
2.54818
2.58758
2.62635
2.66444
2.70181
2.7384
2.77417
2.80906
2.84302
2.87603
2.90802
2.93895
2.96879
2.9975
3.02503
3.05136
3.07644
3.10025
3.12276
3.14394
3.16376
3.1822
3.19925
3.21488
3.22908
3.24183
3.25314
3.263
3.27139
3.27833
3.2838
3.28781
3.29027
3.29123
3.29087
3.28907
3.28585
3.28122
3.27521
3.26785
3.25916
3.24916
3.23789
3.22538
3.21166
3.19677
3.18074
3.16362
3.14543
3.12623
3.10604
3.08493
3.06293
3.04008
3.01643
2.99204
2.96695
2.9412
2.91486
2.88797
2.8606
2.83281
2.80467
2.77629
2.74772
2.719
2.69014
2.6612
2.63224
2.60333
2.57455
2.54602
2.51784
2.49019
2.46322
2.43708
2.41085
2.38115
0.019149
0.0370288
0.0475091
0.0550147
0.0612107
0.0667405
0.0719427
0.0770263
0.0821362
0.0873779
0.0928289
0.0985437
0.104558
0.110892
0.117557
0.124557
0.131897
0.139583
0.147628
0.156048
0.164864
0.174102
0.183788
0.193949
0.204608
0.215787
0.227505
0.239777
0.252611
0.266016
0.279996
0.294552
0.309684
0.325393
0.341675
0.358529
0.375951
0.39394
0.412494
0.431611
0.451289
0.471529
0.492332
0.513698
0.535631
0.558133
0.581209
0.604864
0.629105
0.653937
0.679368
0.705406
0.732058
0.759334
0.787242
0.81579
0.844985
0.874836
0.905349
0.936532
0.96839
1.00093
1.03415
1.06807
1.10267
1.13797
1.17395
1.21063
1.24799
1.28603
1.32475
1.36413
1.40416
1.44483
1.48613
1.52803
1.57052
1.61358
1.65717
1.70128
1.74587
1.79092
1.83639
1.88224
1.92843
1.97494
2.0217
2.06869
2.11586
2.16315
2.21052
2.25792
2.3053
2.3526
2.39978
2.44677
2.49353
2.53998
2.58609
2.63178
2.677
2.72169
2.76579
2.80924
2.85199
2.89399
2.93517
2.97547
3.01486
3.05326
3.09063
3.12691
3.16206
3.19603
3.22878
3.26025
3.29041
3.31921
3.34663
3.37263
3.39716
3.42022
3.44175
3.46176
3.4802
3.49707
3.51234
3.52602
3.53808
3.54852
3.55734
3.56455
3.57013
3.57411
3.57636
3.57704
3.57618
3.57375
3.56974
3.5642
3.55714
3.5486
3.5386
3.52717
3.51436
3.50019
3.4847
3.46793
3.44993
3.43074
3.4104
3.38895
3.36645
3.34293
3.31846
3.29308
3.26684
3.2398
3.212
3.18351
3.15437
3.12466
3.09442
3.06373
3.03266
3.00129
2.96971
2.93794
2.90603
2.87405
2.84206
2.81016
2.77843
2.747
2.71603
2.6857
2.6562
2.62766
2.59923
2.56793
0.0204316
0.0415651
0.0532908
0.0616213
0.0684562
0.0745121
0.0801615
0.0856325
0.0910816
0.0966233
0.102343
0.108301
0.114544
0.121099
0.127986
0.135219
0.142811
0.150773
0.159122
0.167876
0.177058
0.186689
0.196795
0.207397
0.218516
0.230171
0.242377
0.255146
0.268488
0.282409
0.296914
0.312007
0.32769
0.343964
0.360831
0.378292
0.396347
0.414996
0.434242
0.454086
0.474529
0.495576
0.51723
0.539495
0.562376
0.58588
0.610012
0.634782
0.660195
0.686263
0.712993
0.740396
0.768482
0.797262
0.826746
0.856944
0.887867
0.919524
0.951925
0.985078
1.01899
1.05368
1.08913
1.12537
1.16239
1.2002
1.23879
1.27817
1.31833
1.35927
1.40098
1.44345
1.48667
1.53063
1.57531
1.62068
1.66674
1.71344
1.76078
1.8087
1.8572
1.90622
1.95573
2.00568
2.05605
2.10678
2.15782
2.20912
2.26064
2.31232
2.3641
2.41593
2.46774
2.51948
2.57109
2.6225
2.67366
2.72448
2.77492
2.82489
2.87435
2.92321
2.97142
3.01891
3.06562
3.11148
3.15644
3.20043
3.24338
3.28525
3.32596
3.36547
3.40373
3.44067
3.47624
3.51041
3.54312
3.57433
3.604
3.6321
3.65858
3.68342
3.70659
3.72806
3.74781
3.76582
3.78208
3.79658
3.8093
3.82024
3.82941
3.83679
3.8424
3.84625
3.84824
3.84854
3.84713
3.84398
3.83913
3.83262
3.82445
3.81468
3.80332
3.79043
3.77603
3.76017
3.74289
3.72424
3.70426
3.683
3.6605
3.63682
3.61201
3.58613
3.55922
3.53134
3.50255
3.47291
3.44246
3.41128
3.37941
3.34693
3.3139
3.28038
3.24645
3.21219
3.17768
3.14296
3.1081
3.07318
3.03826
3.00345
2.96885
2.93462
2.90091
2.86794
2.83588
2.80488
2.77414
2.74107
0.0230071
0.0457067
0.0583812
0.0673779
0.0747417
0.0812388
0.0872629
0.0930549
0.0987795
0.104558
0.110481
0.116619
0.123022
0.12973
0.136769
0.144162
0.151926
0.160079
0.16864
0.177628
0.187063
0.196966
0.207358
0.218258
0.229684
0.241653
0.254177
0.267268
0.280936
0.295187
0.31003
0.325468
0.341509
0.358155
0.375411
0.393281
0.41177
0.430882
0.450621
0.470993
0.492003
0.513658
0.535965
0.558931
0.582564
0.606875
0.631871
0.657564
0.683965
0.711084
0.738934
0.767527
0.796877
0.826997
0.857899
0.889597
0.922103
0.95543
0.989589
1.02459
1.06045
1.09717
1.13476
1.17324
1.21259
1.25284
1.29398
1.336
1.37892
1.42272
1.46739
1.51294
1.55933
1.60656
1.65462
1.70347
1.75309
1.80346
1.85455
1.90631
1.95872
2.01174
2.06531
2.1194
2.17396
2.22893
2.28427
2.33991
2.3958
2.45187
2.50807
2.56433
2.62058
2.67675
2.73278
2.78859
2.84412
2.89928
2.95402
3.00824
3.06188
3.11487
3.16713
3.2186
3.26919
3.31885
3.36751
3.41509
3.46153
3.50677
3.55073
3.59337
3.63462
3.67442
3.71272
3.74947
3.78462
3.81811
3.84992
3.88
3.90831
3.93482
3.95949
3.98231
4.00325
4.02229
4.03942
4.05462
4.06789
4.07923
4.08863
4.09609
4.10164
4.10526
4.10692
4.10675
4.10469
4.10076
4.09501
4.08745
4.07812
4.06707
4.05432
4.03992
4.02392
4.00635
3.98727
3.96672
3.94476
3.92144
3.89681
3.87093
3.84385
3.81563
3.78633
3.75601
3.72473
3.69254
3.65952
3.62572
3.59121
3.55604
3.5203
3.48404
3.44734
3.41029
3.37295
3.3354
3.2977
3.25993
3.22218
3.18456
3.1472
3.11023
3.07385
3.03826
3.00365
2.97016
2.93702
2.9021
0.0259359
0.0492589
0.0626501
0.0721689
0.0799528
0.0868043
0.093131
0.0991819
0.105127
0.111092
0.117172
0.123444
0.129964
0.136777
0.143918
0.151414
0.159289
0.167563
0.176256
0.185388
0.194976
0.205041
0.2156
0.22667
0.238268
0.250409
0.263105
0.276368
0.290208
0.304635
0.319657
0.335283
0.35152
0.368376
0.385859
0.403977
0.422736
0.442145
0.462213
0.482949
0.504362
0.526462
0.54926
0.572767
0.596994
0.621955
0.647661
0.674127
0.701367
0.729395
0.758227
0.787879
0.818366
0.849706
0.881914
0.915005
0.948996
0.983902
1.01974
1.05651
1.09425
1.13295
1.17263
1.21329
1.25495
1.29761
1.34127
1.38594
1.4316
1.47826
1.52591
1.57453
1.62411
1.67464
1.72609
1.77843
1.83165
1.88571
1.94057
1.9962
2.05255
2.10957
2.16723
2.22546
2.28422
2.34344
2.40307
2.46303
2.52327
2.58371
2.64429
2.70494
2.76557
2.82612
2.8865
2.94664
3.00645
3.06586
3.12479
3.18316
3.24087
3.29786
3.35405
3.40935
3.4637
3.51701
3.56921
3.62023
3.67
3.71844
3.76549
3.81109
3.85516
3.89765
3.93849
3.97765
4.01505
4.05066
4.08443
4.11631
4.14628
4.17428
4.2003
4.22431
4.24628
4.26619
4.28404
4.2998
4.31348
4.32507
4.33457
4.342
4.34736
4.35065
4.35189
4.35114
4.34836
4.34357
4.33684
4.32818
4.31764
4.30527
4.29109
4.27517
4.25754
4.23826
4.21738
4.19495
4.17103
4.14568
4.11895
4.09091
4.06162
4.03113
3.99951
3.96683
3.93314
3.89851
3.86301
3.82669
3.78964
3.7519
3.71356
3.67468
3.63534
3.59562
3.55559
3.51533
3.47492
3.43445
3.394
3.35369
3.31366
3.27406
3.23508
3.19693
3.1598
3.12381
3.08823
3.05126
0.0286453
0.0520951
0.066017
0.0759344
0.0840405
0.0911657
0.097727
0.103979
0.110096
0.116205
0.122405
0.128775
0.135377
0.14226
0.149463
0.157018
0.16495
0.173283
0.182038
0.191232
0.200886
0.211017
0.221642
0.232775
0.244433
0.25663
0.269377
0.282688
0.296574
0.311047
0.326118
0.341799
0.3581
0.375033
0.392609
0.410839
0.429735
0.44931
0.469576
0.490546
0.512233
0.534652
0.557816
0.58174
0.606441
0.631936
0.658241
0.685374
0.713351
0.742193
0.771916
0.802543
0.834091
0.866582
0.900034
0.934467
0.969898
1.00635
1.04383
1.08236
1.12196
1.16263
1.2044
1.24727
1.29125
1.33635
1.38256
1.42989
1.47834
1.5279
1.57856
1.6303
1.68311
1.73698
1.79186
1.84775
1.90459
1.96237
2.02103
2.08053
2.14082
2.20186
2.26359
2.32595
2.38887
2.4523
2.51616
2.58038
2.6449
2.70962
2.77448
2.8394
2.90429
2.96906
3.03365
3.09795
3.16188
3.22535
3.28828
3.35058
3.41216
3.47294
3.53282
3.59173
3.64958
3.7063
3.7618
3.816
3.86884
3.92023
3.9701
4.01839
4.06502
4.10993
4.15307
4.19437
4.23378
4.27124
4.30672
4.34017
4.37155
4.40082
4.42796
4.45293
4.47572
4.49631
4.51467
4.53081
4.54472
4.5564
4.56585
4.57309
4.57813
4.58098
4.58167
4.58026
4.57665
4.57093
4.56314
4.55333
4.54154
4.52781
4.51219
4.49472
4.47547
4.45449
4.43184
4.40756
4.38174
4.35441
4.32566
4.29554
4.26412
4.23146
4.19762
4.16269
4.12671
4.08977
4.05192
4.01323
3.97378
3.93363
3.89284
3.8515
3.80968
3.76745
3.7249
3.68211
3.63915
3.59613
3.55313
3.51029
3.46773
3.42563
3.38416
3.34354
3.30395
3.26551
3.22753
3.18845
0.0310611
0.0542165
0.0684915
0.07869
0.0870254
0.0943466
0.101077
0.107475
0.113716
0.11993
0.126215
0.132653
0.139306
0.146227
0.153456
0.161029
0.168974
0.177315
0.186073
0.195268
0.204916
0.215034
0.225638
0.236744
0.248365
0.260516
0.273211
0.286464
0.300289
0.314702
0.329717
0.345347
0.361608
0.378514
0.396082
0.414326
0.433263
0.452909
0.473282
0.494398
0.516275
0.538932
0.562386
0.586655
0.611761
0.637725
0.66457
0.692317
0.720987
0.750604
0.781191
0.812772
0.845371
0.879011
0.913715
0.949505
0.986402
1.02443
1.0636
1.10394
1.14546
1.18817
1.2321
1.27725
1.32363
1.37125
1.4201
1.47019
1.52151
1.57405
1.6278
1.68275
1.73886
1.79612
1.8545
1.91397
1.97448
2.03599
2.09845
2.16182
2.22605
2.29106
2.3568
2.42321
2.49021
2.55773
2.6257
2.69403
2.76265
2.83148
2.90042
2.96938
3.03829
3.10705
3.17557
3.24375
3.3115
3.37873
3.44534
3.51125
3.57635
3.64056
3.70379
3.76594
3.82694
3.88669
3.94511
4.00213
4.05765
4.11161
4.16393
4.21453
4.26336
4.31033
4.35539
4.39848
4.43954
4.47853
4.51539
4.55008
4.58256
4.6128
4.64076
4.66642
4.68976
4.71076
4.72941
4.7457
4.75963
4.77119
4.78041
4.78729
4.79185
4.79412
4.79413
4.79197
4.78743
4.78068
4.77178
4.76077
4.74769
4.73258
4.71551
4.69652
4.67568
4.65303
4.62866
4.6026
4.57494
4.54574
4.51506
4.48298
4.44955
4.41485
4.37895
4.34192
4.30382
4.26473
4.22472
4.18384
4.14218
4.0998
4.05678
4.01317
3.96907
3.92455
3.87969
3.83457
3.78928
3.74391
3.69857
3.65338
3.60848
3.56404
3.52023
3.47728
3.43534
3.39454
3.35424
3.31311
0.0331639
0.0556688
0.0701327
0.0805025
0.0889776
0.0964187
0.103254
0.109742
0.116061
0.122337
0.128672
0.135146
0.141822
0.148754
0.155982
0.163543
0.171463
0.179768
0.188478
0.197612
0.207189
0.217225
0.227736
0.238737
0.250245
0.262273
0.274835
0.28795
0.301635
0.31591
0.330791
0.346298
0.362449
0.379264
0.396762
0.414965
0.433891
0.453563
0.474004
0.495234
0.517278
0.540155
0.563889
0.588497
0.614005
0.640443
0.667839
0.69622
0.725615
0.756052
0.787559
0.820164
0.853895
0.888777
0.924838
0.9621
1.00059
1.04032
1.08132
1.12361
1.16721
1.21213
1.25838
1.30597
1.35491
1.40521
1.45686
1.50986
1.5642
1.61986
1.67683
1.73509
1.7946
1.85534
1.91727
1.98035
2.04454
2.10978
2.17602
2.24321
2.31127
2.38015
2.44978
2.52007
2.59096
2.66236
2.73419
2.80636
2.8788
2.9514
3.02408
3.09673
3.16928
3.24161
3.31364
3.38526
3.45638
3.5269
3.59672
3.66574
3.73386
3.801
3.86706
3.93194
3.99555
4.05782
4.11864
4.17795
4.23565
4.29166
4.34592
4.39834
4.44886
4.49741
4.54392
4.58834
4.63061
4.67067
4.70849
4.74401
4.7772
4.80803
4.83646
4.86246
4.88603
4.90714
4.92578
4.94194
4.95563
4.96686
4.97563
4.98196
4.98587
4.9874
4.98665
4.98356
4.978
4.97017
4.9601
4.94785
4.93346
4.91698
4.89848
4.878
4.85561
4.83138
4.80537
4.77764
4.74826
4.71731
4.68485
4.65096
4.6157
4.57914
4.54137
4.50244
4.46244
4.42142
4.37947
4.33664
4.29301
4.24866
4.20364
4.15803
4.11191
4.06535
4.01844
3.97125
3.92388
3.87643
3.82899
3.78169
3.73467
3.6881
3.64216
3.59704
3.55291
3.5099
3.46742
3.4244
0.0349606
0.0565223
0.0710247
0.0814631
0.0899933
0.0974806
0.104356
0.110879
0.117226
0.123526
0.129879
0.136362
0.143037
0.149954
0.157152
0.164665
0.172522
0.180747
0.189362
0.198387
0.207839
0.217738
0.228101
0.238946
0.250295
0.262172
0.274586
0.287553
0.301091
0.315221
0.329966
0.345346
0.361386
0.378108
0.395538
0.413701
0.432621
0.452325
0.472842
0.494202
0.516431
0.539557
0.563604
0.588605
0.614595
0.641607
0.669672
0.698823
0.729093
0.760516
0.793127
0.826957
0.862037
0.898394
0.936056
0.975046
1.01539
1.05711
1.10022
1.14475
1.1907
1.23811
1.28696
1.33728
1.38905
1.44229
1.49698
1.55312
1.61068
1.66964
1.72999
1.79168
1.85469
1.91898
1.98449
2.05119
2.11901
2.18791
2.25781
2.32865
2.40036
2.47288
2.54611
2.61998
2.69441
2.7693
2.84458
2.92015
2.99592
3.07179
3.14767
3.22345
3.29904
3.37435
3.44926
3.52368
3.5975
3.67064
3.74298
3.81442
3.88488
3.95424
4.02243
4.08933
4.15487
4.21895
4.28149
4.34239
4.40159
4.459
4.51454
4.56814
4.61973
4.66923
4.7166
4.76177
4.80468
4.84529
4.88354
4.9194
4.95282
4.98378
5.01224
5.03819
5.0616
5.08246
5.10076
5.1165
5.12967
5.1403
5.14839
5.15396
5.15704
5.15768
5.15606
5.15188
5.14523
5.13625
5.12499
5.11148
5.0958
5.07798
5.05809
5.0362
5.01236
4.98665
4.95913
4.92987
4.89894
4.86642
4.83237
4.79688
4.76001
4.72184
4.68244
4.64188
4.60023
4.55757
4.51396
4.46947
4.42418
4.37814
4.33144
4.28414
4.23631
4.18804
4.13939
4.09045
4.04132
3.99207
3.94283
3.89371
3.84486
3.79642
3.74859
3.70154
3.65544
3.61043
3.56597
3.52125
0.036455
0.0568213
0.0712292
0.0816502
0.0901629
0.0976312
0.104489
0.110997
0.117331
0.123617
0.129951
0.136409
0.143053
0.149934
0.157086
0.164543
0.172331
0.180473
0.188993
0.197909
0.207241
0.217008
0.227228
0.237921
0.249103
0.260787
0.272993
0.285753
0.299093
0.313039
0.327619
0.342861
0.358796
0.375454
0.392868
0.411067
0.430085
0.449954
0.470707
0.492378
0.51501
0.538627
0.563255
0.588917
0.615651
0.643511
0.67254
0.702776
0.73426
0.767029
0.801124
0.836589
0.873446
0.911722
0.951444
0.992633
1.03531
1.07949
1.12519
1.17243
1.22121
1.27155
1.32344
1.37689
1.43189
1.48842
1.54647
1.60602
1.66705
1.72951
1.79337
1.8586
1.92515
1.99297
2.062
2.13219
2.20347
2.27578
2.34905
2.42321
2.49817
2.57386
2.6502
2.7271
2.80448
2.88224
2.96029
3.03854
3.11689
3.19525
3.27351
3.35159
3.42937
3.50677
3.58367
3.65998
3.7356
3.81042
3.88436
3.9573
4.02915
4.09982
4.1692
4.23722
4.30377
4.36878
4.43214
4.49379
4.55364
4.61161
4.66762
4.72161
4.77349
4.82322
4.87072
4.91594
4.95884
4.99934
5.03743
5.07304
5.10615
5.13672
5.16473
5.19015
5.21298
5.23319
5.25079
5.26576
5.27812
5.28787
5.29504
5.29964
5.30171
5.30136
5.29871
5.29333
5.28554
5.27538
5.26291
5.24817
5.23123
5.21215
5.19098
5.16778
5.14264
5.1156
5.08676
5.05617
5.02391
4.99006
4.95469
4.91787
4.87967
4.84018
4.79946
4.75759
4.71463
4.67066
4.62575
4.57996
4.53336
4.48603
4.43801
4.38939
4.34024
4.29062
4.24062
4.1903
4.13977
4.0891
4.03841
3.98782
3.93746
3.88748
3.83806
3.78937
3.74158
3.69483
3.64864
3.6025
0.0377746
0.0567792
0.0710319
0.0813742
0.0898132
0.0972122
0.104007
0.110456
0.116736
0.122971
0.129257
0.135664
0.14225
0.149058
0.156125
0.16348
0.17115
0.179155
0.187519
0.196265
0.205416
0.214991
0.225015
0.235508
0.246497
0.258008
0.270073
0.282717
0.295971
0.309867
0.324436
0.339716
0.355741
0.372554
0.390201
0.40872
0.428142
0.448508
0.469853
0.492207
0.515579
0.540027
0.56562
0.592423
0.62049
0.649855
0.680556
0.712634
0.746129
0.781074
0.817501
0.85543
0.894898
0.935936
0.978581
1.02284
1.06871
1.1162
1.16531
1.21606
1.26844
1.32243
1.37804
1.43523
1.494
1.55431
1.61614
1.67944
1.74417
1.8103
1.87778
1.94654
2.01654
2.08772
2.16002
2.23336
2.30768
2.38291
2.45897
2.53579
2.61329
2.69139
2.76999
2.84903
2.9284
3.00803
3.08781
3.16766
3.24748
3.32719
3.40668
3.48585
3.56462
3.64289
3.72055
3.79752
3.87369
3.94896
4.02325
4.09646
4.1685
4.23926
4.30867
4.37662
4.44304
4.50783
4.57092
4.63223
4.69167
4.74917
4.80466
4.85807
4.90932
4.95836
5.00513
5.04958
5.09165
5.1313
5.16848
5.20316
5.23529
5.26487
5.29185
5.31621
5.33796
5.35707
5.37353
5.38736
5.39855
5.40712
5.41308
5.41646
5.41732
5.41592
5.41196
5.40535
5.39634
5.38497
5.37129
5.35535
5.33722
5.31695
5.29461
5.27025
5.24396
5.21581
5.18585
5.15417
5.12083
5.08592
5.04951
5.01167
4.97247
4.932
4.89031
4.84749
4.8036
4.75871
4.71288
4.66619
4.61869
4.57046
4.52155
4.47202
4.42195
4.37141
4.32046
4.26918
4.21764
4.16596
4.11421
4.06252
4.01101
3.95984
3.90917
3.85917
3.80998
3.76178
3.71414
3.66689
0.0389684
0.0565481
0.0704872
0.0806408
0.088913
0.0961581
0.102812
0.109136
0.115303
0.121435
0.127623
0.133933
0.140419
0.14712
0.154073
0.161308
0.168854
0.176742
0.184992
0.193627
0.202673
0.212156
0.222104
0.232548
0.243518
0.255046
0.267169