/*--------------------------------*- C++ -*----------------------------------*\
| =========                 |                                                 |
| \\      /  F ield         | OpenFOAM: The Open Source CFD Toolbox           |
|  \\    /   O peration     | Version:  2306                                  |
|   \\  /    A nd           | Website:  www.openfoam.com                      |
|    \\/     M anipulation  |                                                 |
\*---------------------------------------------------------------------------*/
FoamFile
{
    version     2.0;
    format      ascii;
    arch        "LSB;label=32;scalar=64";
    class       volScalarField;
    location    "280";
    object      p;
}
// * * * * * * * * * * * * * * * * * * * * * * * * * * * * * * * * * * * * * //

dimensions      [0 2 -2 0 0 0 0];

internalField   nonuniform List<scalar> 
12225
(
-1.73482
-3.89206
-4.98468
-5.29846
-5.4753
-5.65407
-5.80219
-5.91384
-6.00548
-6.08845
-6.16582
-6.23864
-6.30861
-6.37773
-6.44847
-6.52029
-6.60779
-6.661
-4.86506
-5.65272
-5.85767
-5.76973
-5.74472
-5.80903
-5.89214
-5.96647
-6.03598
-6.10523
-6.17385
-6.24091
-6.30694
-6.37316
-6.44123
-6.51244
-6.59159
-6.69464
-5.24508
-5.17903
-5.29852
-5.38562
-5.49402
-5.63655
-5.77138
-5.88185
-5.97587
-6.06153
-6.14129
-6.21604
-6.2873
-6.35685
-6.4267
-6.49809
-6.57579
-6.65875
-5.11777
-5.03033
-5.28959
-5.48175
-5.60429
-5.72557
-5.83919
-5.93358
-6.01475
-6.08996
-6.16151
-6.22986
-6.29597
-6.36113
-6.42666
-6.49331
-6.56224
-6.6282
-5.10935
-5.1239
-5.37093
-5.53598
-5.62896
-5.72745
-5.82971
-5.92017
-6.00025
-6.07534
-6.14722
-6.21604
-6.28247
-6.34745
-6.41191
-6.47605
-6.53946
-6.59846
-5.1704
-5.21546
-5.402
-5.54203
-5.63224
-5.72839
-5.82896
-5.9194
-5.9997
-6.07455
-6.14584
-6.21383
-6.27912
-6.34248
-6.40452
-6.46511
-6.52346
-6.57675
-5.23302
-5.27526
-5.41932
-5.5497
-5.64382
-5.73761
-5.83366
-5.92133
-5.99992
-6.07318
-6.14289
-6.20939
-6.27309
-6.33454
-6.39406
-6.45133
-6.50544
-6.55409
-5.28854
-5.32573
-5.44327
-5.56415
-5.65773
-5.74689
-5.83741
-5.92187
-5.99866
-6.07038
-6.13862
-6.20369
-6.26585
-6.32545
-6.38258
-6.43687
-6.48743
-6.53255
-5.34032
-5.37416
-5.47176
-5.58064
-5.67077
-5.7554
-5.84091
-5.92218
-5.99704
-6.06713
-6.13377
-6.19726
-6.25773
-6.31537
-6.37015
-6.42168
-6.46924
-6.51159
-5.38942
-5.42002
-5.50144
-5.59808
-5.68368
-5.76418
-5.84498
-5.92281
-5.99541
-6.0636
-6.12842
-6.19014
-6.24878
-6.3044
-6.35691
-6.40595
-6.45098
-6.49112
-5.43564
-5.46276
-5.53121
-5.61659
-5.69698
-5.77334
-5.84958
-5.92377
-5.99381
-6.0599
-6.12274
-6.18254
-6.23926
-6.29285
-6.34319
-6.38999
-6.43287
-6.47121
-5.47519
-5.49921
-5.55817
-5.63429
-5.70943
-5.78188
-5.85412
-5.92491
-5.99241
-6.05643
-6.11735
-6.1753
-6.23019
-6.28194
-6.33041
-6.37535
-6.41653
-6.45349
-5.51153
-5.53291
-5.58406
-5.65195
-5.72179
-5.79033
-5.85874
-5.92618
-5.99109
-6.05295
-6.1119
-6.16797
-6.22105
-6.27102
-6.31773
-6.361
-6.40068
-6.43646
-5.54931
-5.56808
-5.61197
-5.67172
-5.73565
-5.79974
-5.86398
-5.92771
-5.9896
-6.04892
-6.10558
-6.15949
-6.21053
-6.25854
-6.30339
-6.34495
-6.38315
-6.41779
-5.58702
-5.60325
-5.64065
-5.69274
-5.75048
-5.80968
-5.86952
-5.92926
-5.98776
-6.04422
-6.09829
-6.14982
-6.19864
-6.24457
-6.28752
-6.32738
-6.36414
-6.39771
-5.62236
-5.63626
-5.66814
-5.71341
-5.76508
-5.81925
-5.87462
-5.93029
-5.98523
-6.0386
-6.08992
-6.13893
-6.18544
-6.22928
-6.27035
-6.30858
-6.344
-6.37657
-5.65194
-5.66391
-5.6914
-5.73104
-5.77731
-5.8268
-5.87795
-5.92977
-5.98125
-6.03156
-6.08017
-6.12673
-6.17101
-6.21286
-6.25219
-6.28895
-6.32318
-6.35487
-5.67077
-5.68137
-5.70579
-5.74144
-5.78371
-5.82952
-5.87731
-5.92599
-5.97461
-6.02234
-6.06862
-6.11308
-6.15549
-6.19568
-6.23356
-6.26912
-6.30237
-6.33335
-5.67113
-5.6811
-5.7042
-5.73816
-5.77871
-5.82282
-5.86893
-5.91598
-5.96305
-6.00934
-6.05427
-6.09747
-6.13874
-6.17792
-6.21495
-6.24981
-6.28254
-6.3132
-5.64693
-5.65742
-5.68173
-5.71748
-5.75989
-5.80547
-5.85261
-5.90048
-5.94821
-5.99498
-6.04022
-6.0836
-6.12496
-6.16417
-6.20119
-6.23603
-6.26873
-6.2994
-5.61267
-5.62406
-5.65086
-5.69049
-5.73677
-5.78535
-5.83492
-5.88498
-5.93457
-5.98276
-6.02908
-6.07332
-6.11536
-6.15513
-6.19261
-6.22784
-6.26091
-6.29193
-5.57037
-5.58248
-5.61306
-5.65934
-5.7113
-5.76346
-5.81608
-5.86929
-5.92169
-5.97202
-6.01996
-6.06546
-6.10849
-6.149
-6.18703
-6.22267
-6.25603
-6.28726
-5.52342
-5.53484
-5.56994
-5.62628
-5.68593
-5.74213
-5.79805
-5.85463
-5.90987
-5.96246
-6.01229
-6.05943
-6.1038
-6.14538
-6.18427
-6.22062
-6.25461
-6.28647
-5.47437
-5.48345
-5.52488
-5.59262
-5.65907
-5.72025
-5.78181
-5.84301
-5.90102
-5.95535
-6.00656
-6.0548
-6.09996
-6.14208
-6.18133
-6.21795
-6.25209
-6.2839
-5.42322
-5.42453
-5.48753
-5.56943
-5.63324
-5.69413
-5.76192
-5.82984
-5.89249
-5.95021
-6.00427
-6.05481
-6.10166
-6.14496
-6.18502
-6.2222
-6.25681
-6.28933
-5.37695
-5.3285
-5.44445
-5.56617
-5.62898
-5.68189
-5.74681
-5.8138
-5.87581
-5.93358
-5.98838
-6.03998
-6.08792
-6.1323
-6.17342
-6.21161
-6.24708
-6.27998
-5.39405
-5.19605
-5.32941
-5.50772
-5.61324
-5.6941
-5.77385
-5.84644
-5.90977
-5.96722
-6.02074
-6.07033
-6.11583
-6.15763
-6.19616
-6.23188
-6.26526
-6.29736
-5.53493
-5.28749
-5.26413
-5.31948
-5.40258
-5.51128
-5.62275
-5.72065
-5.80561
-5.88219
-5.95201
-6.01498
-6.07131
-6.12188
-6.16747
-6.20874
-6.24649
-6.28205
-5.26292
-5.89365
-6.01242
-5.87258
-5.78501
-5.79244
-5.83473
-5.87974
-5.92543
-5.97373
-6.02283
-6.07029
-6.11478
-6.15622
-6.19468
-6.23002
-6.2626
-6.29379
-2.20847
-3.97558
-4.98893
-5.27052
-5.39708
-5.53987
-5.66987
-5.77064
-5.85297
-5.92624
-5.99254
-6.05174
-6.10441
-6.15147
-6.19362
-6.23106
-6.26393
-6.29068
-7.07541
-7.07515
-7.07512
-7.07553
-7.07636
-7.07753
-7.07894
-7.0805
-7.08212
-7.08381
-7.08556
-7.0874
-7.08935
-7.09142
-7.09365
-7.09606
-7.09869
-7.10157
-7.10473
-7.10822
-7.11207
-7.11633
-7.12103
-7.12621
-7.13194
-7.13828
-7.14529
-7.15304
-7.16162
-7.17112
-7.18161
-7.19317
-7.20585
-7.2197
-7.23477
-7.25108
-7.26862
-7.28738
-7.30734
-7.32846
-7.35068
-7.37394
-7.39816
-7.42328
-7.44926
-7.47604
-7.50355
-7.53162
-7.56012
-7.58898
-7.61813
-7.64753
-7.67709
-7.70675
-7.73645
-7.76611
-7.79566
-7.82501
-7.85409
-7.8828
-7.91105
-7.93874
-7.96575
-7.99199
-8.01731
-8.04161
-8.06474
-8.08657
-8.10693
-8.12569
-8.14268
-8.15772
-8.17064
-8.18127
-8.18942
-8.1949
-8.19751
-8.19705
-8.19332
-8.18612
-8.17523
-8.16046
-8.14158
-8.1184
-8.09071
-8.0583
-8.02096
-7.9785
-7.93071
-7.87742
-7.81843
-7.75358
-7.68269
-7.6056
-7.52217
-7.43224
-7.33569
-7.23237
-7.12227
-7.0055
-6.88208
-6.75167
-6.61379
-6.46844
-6.3158
-6.15592
-5.98884
-5.81458
-5.63317
-5.44469
-5.24919
-5.04676
-4.8375
-4.62154
-4.39902
-4.17007
-3.93488
-3.69363
-3.4465
-3.19373
-2.93555
-2.67218
-2.40389
-2.13095
-1.85361
-1.57219
-1.28697
-0.998274
-0.706409
-0.411707
-0.114497
0.184896
0.486155
0.78894
1.09287
1.39759
1.70276
2.00806
2.31314
2.61765
2.92127
3.22365
3.52449
3.82345
4.12025
4.41457
4.70615
4.99469
5.27995
5.56167
5.83962
6.11357
6.38332
6.64867
6.90944
7.16547
7.41661
7.66271
7.90367
8.13936
8.36971
8.59462
8.81404
9.02792
9.23623
9.43913
9.63643
9.82783
10.0133
10.1929
10.3666
10.5345
10.6967
10.8532
11.0042
11.15
11.2917
11.4305
11.5766
11.7264
-7.07587
-7.07565
-7.07564
-7.07612
-7.07701
-7.07808
-7.07923
-7.08042
-7.08163
-7.08286
-7.08411
-7.08542
-7.08684
-7.08841
-7.09016
-7.0921
-7.09425
-7.09665
-7.09933
-7.10229
-7.10555
-7.10916
-7.11319
-7.1177
-7.12276
-7.12844
-7.13482
-7.142
-7.15005
-7.15906
-7.16911
-7.18028
-7.19263
-7.2062
-7.22105
-7.23717
-7.25456
-7.27319
-7.29303
-7.31402
-7.3361
-7.35921
-7.38327
-7.4082
-7.43393
-7.4604
-7.48751
-7.51516
-7.54326
-7.57175
-7.60053
-7.62957
-7.65878
-7.68811
-7.71749
-7.74684
-7.7761
-7.80518
-7.83401
-7.86249
-7.89054
-7.91805
-7.94492
-7.97104
-7.99629
-8.02054
-8.04366
-8.06551
-8.08594
-8.1048
-8.12193
-8.13716
-8.15031
-8.16122
-8.16969
-8.17554
-8.17856
-8.17857
-8.17536
-8.16872
-8.15846
-8.14435
-8.1262
-8.1038
-8.07694
-8.04541
-8.00901
-7.96754
-7.92081
-7.86862
-7.81081
-7.74718
-7.67758
-7.60185
-7.51984
-7.43141
-7.33642
-7.23474
-7.12625
-7.01079
-6.88815
-6.75832
-6.62146
-6.47759
-6.32657
-6.16837
-6.00299
-5.83045
-5.65078
-5.46403
-5.27026
-5.06957
-4.86204
-4.6478
-4.42698
-4.19973
-3.9662
-3.72659
-3.48108
-3.2299
-2.97326
-2.7114
-2.44458
-2.17305
-1.89709
-1.61698
-1.33303
-1.04553
-0.754815
-0.461195
-0.165005
0.133434
0.433809
0.735784
1.03898
1.34304
1.64762
1.95241
2.25706
2.56123
2.86457
3.16677
3.46749
3.76642
4.06326
4.35771
4.64949
4.93831
5.22391
5.50605
5.78448
6.05898
6.32934
6.59536
6.85686
7.11367
7.36564
7.61263
7.85451
8.09118
8.32254
8.54851
8.76906
8.98414
9.19367
9.39724
9.59475
9.78642
9.97223
10.1522
10.3264
10.4948
10.6575
10.8147
10.9665
11.1134
11.2568
11.3974
11.5468
11.6925
-7.07481
-7.07485
-7.07514
-7.07581
-7.07672
-7.07766
-7.07853
-7.07933
-7.08007
-7.08079
-7.08153
-7.08233
-7.08322
-7.08424
-7.0854
-7.08674
-7.08826
-7.09001
-7.09203
-7.09436
-7.09706
-7.10021
-7.10387
-7.1081
-7.113
-7.11864
-7.12511
-7.13248
-7.14082
-7.15018
-7.16062
-7.1722
-7.18493
-7.19885
-7.21397
-7.23026
-7.24771
-7.26628
-7.28594
-7.30664
-7.32832
-7.35094
-7.37443
-7.39873
-7.42377
-7.44949
-7.47582
-7.50267
-7.52999
-7.5577
-7.58574
-7.61405
-7.64256
-7.67122
-7.69995
-7.72868
-7.75735
-7.78588
-7.81418
-7.84217
-7.86976
-7.89685
-7.92333
-7.94911
-7.97404
-7.99803
-8.02092
-8.04259
-8.06289
-8.08166
-8.09875
-8.11399
-8.12722
-8.13824
-8.14689
-8.15297
-8.15629
-8.15665
-8.15385
-8.14769
-8.13797
-8.12448
-8.10701
-8.08535
-8.0593
-8.02865
-7.9932
-7.95275
-7.9071
-7.85607
-7.79947
-7.73713
-7.66888
-7.59455
-7.514
-7.42708
-7.33365
-7.23361
-7.12685
-7.01321
-6.8925
-6.76463
-6.6297
-6.48773
-6.33867
-6.18246
-6.01911
-5.84863
-5.67104
-5.48639
-5.29473
-5.09616
-4.89076
-4.67864
-4.45994
-4.2348
-4.00338
-3.76585
-3.52241
-3.27326
-3.01863
-2.75875
-2.49386
-2.22423
-1.95012
-1.67182
-1.38961
-1.10381
-0.814723
-0.522673
-0.22799
0.0690066
0.368009
0.668681
0.970651
1.27356
1.57709
1.8809
2.18465
2.488
2.79062
3.09217
3.39233
3.69079
3.98724
4.28138
4.57293
4.8616
5.14714
5.42928
5.7078
5.98245
6.25303
6.51933
6.78118
7.03839
7.29081
7.5383
7.78074
8.01799
8.24995
8.47654
8.69765
8.91323
9.12326
9.32765
9.52638
9.71939
9.90657
10.0879
10.2635
10.4333
10.5974
10.7561
10.9095
11.0583
11.2041
11.3467
11.4992
11.6343
-7.07164
-7.07213
-7.07297
-7.07401
-7.07504
-7.07595
-7.07672
-7.07736
-7.0779
-7.07839
-7.07888
-7.07941
-7.08002
-7.08075
-7.08164
-7.08272
-7.08403
-7.0856
-7.08748
-7.08973
-7.09242
-7.09562
-7.0994
-7.10383
-7.10899
-7.11495
-7.12178
-7.12953
-7.13827
-7.14804
-7.15887
-7.17079
-7.18382
-7.19795
-7.21317
-7.22948
-7.24684
-7.26524
-7.28464
-7.30499
-7.32625
-7.34838
-7.37132
-7.39501
-7.41941
-7.44446
-7.4701
-7.49627
-7.5229
-7.54994
-7.57734
-7.60503
-7.63295
-7.66104
-7.68923
-7.71746
-7.74566
-7.77375
-7.80165
-7.82927
-7.85653
-7.88332
-7.90954
-7.93509
-7.95985
-7.98368
-8.00647
-8.02807
-8.04834
-8.06713
-8.08427
-8.09961
-8.11298
-8.12419
-8.13307
-8.13942
-8.14306
-8.14379
-8.14141
-8.13572
-8.12651
-8.11358
-8.09671
-8.07571
-8.05037
-8.02047
-7.98582
-7.94622
-7.90147
-7.85138
-7.79578
-7.73447
-7.66728
-7.59407
-7.51465
-7.4289
-7.33667
-7.23783
-7.13227
-7.01988
-6.90053
-6.77413
-6.64071
-6.50024
-6.35269
-6.19802
-6.03623
-5.86733
-5.69133
-5.50829
-5.31825
-5.1213
-4.91752
-4.70703
-4.48995
-4.26642
-4.0366
-3.80066
-3.55879
-3.3112
-3.0581
-2.79973
-2.53632
-2.26813
-1.99543
-1.7185
-1.43763
-1.15312
-0.865275
-0.574424
-0.280893
0.0150094
0.312972
0.612646
0.913664
1.2157
1.51842
1.82148
2.12454
2.42726
2.72932
3.03037
3.3301
3.62819
3.92433
4.21823
4.5096
4.79815
5.08363
5.36577
5.64434
5.9191
6.18984
6.45635
6.71845
6.97597
7.22873
7.47659
7.71941
7.95709
8.18953
8.41663
8.63829
8.85444
9.06505
9.27012
9.46967
9.66355
9.85165
10.0339
10.2105
10.3812
10.5464
10.7061
10.8607
11.0107
11.1576
11.3004
11.4518
11.5741
-7.06639
-7.06745
-7.06913
-7.07081
-7.07218
-7.07327
-7.07411
-7.07477
-7.07529
-7.07573
-7.07616
-7.07662
-7.07718
-7.07787
-7.07875
-7.07985
-7.08123
-7.08292
-7.08499
-7.08749
-7.0905
-7.09407
-7.09828
-7.10319
-7.10887
-7.11538
-7.12276
-7.13107
-7.14033
-7.15058
-7.16184
-7.17413
-7.18744
-7.20178
-7.21714
-7.2335
-7.25083
-7.26911
-7.2883
-7.30839
-7.32932
-7.35105
-7.37355
-7.39676
-7.42065
-7.44516
-7.47025
-7.49586
-7.52195
-7.54846
-7.57534
-7.60253
-7.62998
-7.65762
-7.68539
-7.71322
-7.74105
-7.7688
-7.7964
-7.82374
-7.85075
-7.87733
-7.90338
-7.92878
-7.95341
-7.97716
-7.9999
-8.02148
-8.04176
-8.06059
-8.07781
-8.09327
-8.10677
-8.11816
-8.12725
-8.13385
-8.13776
-8.1388
-8.13676
-8.13144
-8.12263
-8.11014
-8.09374
-8.07324
-8.04843
-8.0191
-7.98505
-7.94608
-7.90198
-7.85258
-7.79769
-7.73712
-7.67071
-7.59828
-7.51969
-7.43478
-7.3434
-7.24545
-7.14079
-7.02932
-6.91094
-6.78558
-6.65321
-6.5138
-6.3673
-6.2137
-6.05299
-5.88517
-5.71027
-5.52832
-5.33939
-5.14354
-4.94087
-4.73149
-4.51551
-4.29308
-4.06435
-3.82949
-3.58869
-3.34215
-3.09009
-2.83274
-2.57033
-2.30311
-2.03136
-1.75536
-1.47538
-1.19174
-0.904735
-0.61469
-0.321926
-0.0267475
0.270526
0.569533
0.869919
1.17138
1.47358
1.77616
2.07878
2.38111
2.68281
2.98356
3.28303
3.58091
3.8769
4.17068
4.46197
4.7505
5.03599
5.3182
5.59686
5.87176
6.14268
6.40941
6.67175
6.92954
7.1826
7.43081
7.67402
7.91211
8.14498
8.37253
8.59466
8.8113
9.02238
9.22789
9.42783
9.62213
9.81067
9.99345
10.1705
10.3418
10.5075
10.6677
10.8229
10.9732
11.1202
11.2618
11.4104
11.5205
-7.05964
-7.06135
-7.06406
-7.06653
-7.06841
-7.06983
-7.07091
-7.07174
-7.07239
-7.07295
-7.07349
-7.07407
-7.07476
-7.07561
-7.07668
-7.07802
-7.07968
-7.08172
-7.08418
-7.08713
-7.09064
-7.09475
-7.09954
-7.10506
-7.11136
-7.11849
-7.12648
-7.13537
-7.14518
-7.15593
-7.16762
-7.18028
-7.19389
-7.20844
-7.22393
-7.24034
-7.25765
-7.27584
-7.29488
-7.31474
-7.3354
-7.35681
-7.37895
-7.40178
-7.42526
-7.44935
-7.47401
-7.49919
-7.52485
-7.55094
-7.57742
-7.60422
-7.63129
-7.65858
-7.68603
-7.71357
-7.74113
-7.76864
-7.79601
-7.82317
-7.85003
-7.87648
-7.90242
-7.92774
-7.95233
-7.97607
-7.99881
-8.02043
-8.04077
-8.0597
-8.07703
-8.09262
-8.1063
-8.11787
-8.12717
-8.13399
-8.13816
-8.13948
-8.13773
-8.13273
-8.12426
-8.11212
-8.09611
-8.076
-8.0516
-8.0227
-7.9891
-7.95059
-7.90698
-7.85808
-7.8037
-7.74366
-7.67779
-7.60593
-7.52791
-7.44358
-7.35282
-7.25548
-7.15146
-7.04065
-6.92295
-6.7983
-6.66664
-6.52794
-6.38217
-6.2293
-6.06931
-5.90223
-5.72806
-5.54686
-5.35867
-5.16357
-4.96165
-4.75301
-4.53778
-4.31609
-4.0881
-3.85398
-3.61391
-3.36809
-3.11674
-2.86009
-2.59836
-2.33182
-2.06073
-1.78536
-1.50601
-1.22297
-0.936551
-0.647071
-0.354844
-0.0601716
0.236609
0.535134
0.835074
1.13613
1.43796
1.7402
2.04251
2.34455
2.64601
2.94654
3.24583
3.54357
3.83943
4.13313
4.42438
4.7129
4.99841
5.28066
5.55941
5.83441
6.10546
6.37235
6.63489
6.8929
7.14622
7.3947
7.63821
7.87661
8.1098
8.33768
8.56015
8.77714
8.98855
9.19436
9.39456
9.58911
9.77793
9.96101
10.1384
10.31
10.476
10.6365
10.7919
10.9421
11.0886
11.2283
11.3741
11.4733
-7.05239
-7.05473
-7.0585
-7.06184
-7.0643
-7.06615
-7.06757
-7.06869
-7.06961
-7.07042
-7.07121
-7.07206
-7.07303
-7.0742
-7.07563
-7.07736
-7.07946
-7.08197
-7.08495
-7.08847
-7.09256
-7.09729
-7.10271
-7.10886
-7.11578
-7.12351
-7.13208
-7.1415
-7.1518
-7.16298
-7.17506
-7.18803
-7.20189
-7.21663
-7.23224
-7.2487
-7.26601
-7.28414
-7.30307
-7.32277
-7.34323
-7.36441
-7.38629
-7.40884
-7.43202
-7.4558
-7.48014
-7.50501
-7.53035
-7.55614
-7.58232
-7.60884
-7.63565
-7.66271
-7.68993
-7.71728
-7.74467
-7.77203
-7.79928
-7.82635
-7.85313
-7.87954
-7.90546
-7.93079
-7.95542
-7.9792
-8.00202
-8.02373
-8.04419
-8.06324
-8.08073
-8.09649
-8.11034
-8.12212
-8.13162
-8.13867
-8.14308
-8.14464
-8.14315
-8.13841
-8.13022
-8.11837
-8.10264
-8.08284
-8.05874
-8.03016
-7.99688
-7.9587
-7.91542
-7.86686
-7.81282
-7.75314
-7.68763
-7.61613
-7.53848
-7.45453
-7.36415
-7.26721
-7.1636
-7.05321
-6.93595
-6.81174
-6.68054
-6.5423
-6.39698
-6.24456
-6.08504
-5.91842
-5.74472
-5.56399
-5.37627
-5.18165
-4.98021
-4.77205
-4.5573
-4.3361
-4.10859
-3.87495
-3.63537
-3.39003
-3.13916
-2.88298
-2.62172
-2.35564
-2.085
-1.81008
-1.53117
-1.24855
-0.962549
-0.673472
-0.381627
-0.0873256
0.209081
0.507246
0.806855
1.10761
1.40915
1.71113
2.01319
2.31502
2.61627
2.91663
3.21577
3.51337
3.80913
4.10275
4.39394
4.68243
4.96792
5.25019
5.52897
5.80403
6.07517
6.34217
6.60484
6.863
7.11649
7.36516
7.60886
7.84747
8.08089
8.309
8.5317
8.74892
8.96057
9.16661
9.36702
9.56177
9.7508
9.9341
10.1117
10.2835
10.4497
10.6103
10.7656
10.9155
11.0611
11.1988
11.3419
11.4316
-7.04563
-7.04851
-7.05325
-7.05741
-7.06047
-7.06279
-7.06462
-7.0661
-7.06736
-7.06851
-7.06964
-7.07084
-7.0722
-7.07377
-7.07564
-7.07784
-7.08043
-7.08348
-7.08703
-7.09112
-7.09582
-7.10115
-7.10717
-7.11391
-7.1214
-7.12966
-7.13874
-7.14862
-7.15934
-7.1709
-7.18329
-7.19653
-7.2106
-7.22549
-7.24121
-7.25774
-7.27506
-7.29316
-7.31202
-7.33163
-7.35196
-7.37298
-7.39469
-7.41704
-7.44002
-7.4636
-7.48773
-7.51239
-7.53753
-7.56312
-7.58912
-7.61547
-7.64213
-7.66905
-7.69617
-7.72342
-7.75074
-7.77805
-7.80528
-7.83234
-7.85914
-7.88559
-7.91157
-7.93698
-7.9617
-7.9856
-8.00854
-8.0304
-8.05101
-8.07023
-8.0879
-8.10384
-8.11789
-8.12986
-8.13957
-8.14683
-8.15144
-8.15321
-8.15194
-8.14741
-8.13944
-8.12779
-8.11228
-8.09268
-8.0688
-8.04042
-8.00734
-7.96936
-7.92628
-7.87792
-7.82408
-7.7646
-7.69928
-7.62798
-7.55053
-7.46678
-7.37661
-7.27988
-7.17648
-7.0663
-6.94927
-6.8253
-6.69434
-6.55634
-6.41126
-6.25909
-6.09981
-5.93344
-5.76
-5.57952
-5.39207
-5.19772
-4.99655
-4.78867
-4.5742
-4.35328
-4.12607
-3.89273
-3.65344
-3.40841
-3.15784
-2.90196
-2.641
-2.37523
-2.10489
-1.83027
-1.55166
-1.26934
-0.983627
-0.694834
-0.403262
-0.109241
0.186882
0.484776
0.784136
1.08466
1.38598
1.68774
1.98961
2.29125
2.59233
2.89254
3.19154
3.48902
3.78468
4.0782
4.36932
4.65775
4.94321
5.22546
5.50424
5.77933
6.0505
6.31756
6.5803
6.83855
7.09214
7.34092
7.58475
7.82351
8.05707
8.28534
8.5082
8.72559
8.93741
9.14362
9.34419
9.53908
9.72827
9.91171
10.0894
10.2613
10.4276
10.5882
10.7433
10.8926
11.0371
11.1727
11.3134
11.3947
-7.04018
-7.04346
-7.04896
-7.05383
-7.05745
-7.06023
-7.06247
-7.06434
-7.06596
-7.06748
-7.06899
-7.07058
-7.07235
-7.07436
-7.07668
-7.07936
-7.08245
-7.08602
-7.0901
-7.09473
-7.09997
-7.10584
-7.11238
-7.11963
-7.1276
-7.13633
-7.14582
-7.1561
-7.16716
-7.17902
-7.19168
-7.20514
-7.21939
-7.23442
-7.25024
-7.26683
-7.28418
-7.30228
-7.32112
-7.34068
-7.36094
-7.38188
-7.40349
-7.42574
-7.44861
-7.47207
-7.49608
-7.52064
-7.54568
-7.57118
-7.59709
-7.62338
-7.64999
-7.67687
-7.70397
-7.73122
-7.75856
-7.78592
-7.8132
-7.84034
-7.86724
-7.89379
-7.9199
-7.94545
-7.97031
-7.99437
-8.01749
-8.03952
-8.06032
-8.07972
-8.09758
-8.11371
-8.12794
-8.1401
-8.14999
-8.15743
-8.16222
-8.16416
-8.16304
-8.15867
-8.15084
-8.13933
-8.12394
-8.10446
-8.08068
-8.0524
-8.01941
-7.98152
-7.93851
-7.89022
-7.83645
-7.77702
-7.71175
-7.6405
-7.56309
-7.4794
-7.38927
-7.29258
-7.18924
-7.07912
-6.96215
-6.83824
-6.70735
-6.56942
-6.42441
-6.27231
-6.11311
-5.94683
-5.77347
-5.5931
-5.40575
-5.21151
-5.01045
-4.8027
-4.58837
-4.3676
-4.14053
-3.90735
-3.66823
-3.42337
-3.17298
-2.91728
-2.65651
-2.39093
-2.1208
-1.84638
-1.56797
-1.28586
-1.00036
-0.711766
-0.420401
-0.1266
0.169303
0.466986
0.766147
1.06648
1.36762
1.6692
1.97089
2.27237
2.57329
2.87335
3.17221
3.46956
3.7651
4.05853
4.34957
4.63792
4.92333
5.20553
5.48428
5.75936
6.03053
6.29759
6.56036
6.81864
7.07228
7.32112
7.56502
7.80386
8.03751
8.26587
8.48885
8.70634
8.91828
9.1246
9.32528
9.52028
9.70956
9.89309
10.0708
10.2428
10.409
10.5695
10.7242
10.8728
11.0162
11.1496
11.2881
11.3622
-7.03659
-7.04013
-7.04607
-7.05146
-7.05555
-7.05875
-7.06137
-7.0636
-7.06559
-7.06746
-7.06934
-7.07132
-7.07348
-7.0759
-7.07864
-7.08175
-7.0853
-7.08932
-7.09385
-7.09895
-7.10464
-7.11096
-7.11794
-7.1256
-7.13397
-7.14306
-7.15289
-7.16347
-7.17481
-7.18691
-7.19977
-7.2134
-7.2278
-7.24295
-7.25886
-7.27551
-7.29291
-7.31103
-7.32987
-7.34942
-7.36967
-7.39059
-7.41216
-7.43438
-7.45722
-7.48065
-7.50465
-7.52919
-7.55422
-7.57972
-7.60565
-7.63196
-7.65861
-7.68554
-7.71271
-7.74005
-7.76749
-7.79495
-7.82237
-7.84965
-7.8767
-7.90342
-7.9297
-7.95543
-7.98048
-8.00473
-8.02804
-8.05026
-8.07124
-8.09083
-8.10887
-8.12517
-8.13957
-8.15188
-8.16191
-8.16948
-8.17439
-8.17643
-8.1754
-8.17111
-8.16333
-8.15187
-8.13651
-8.11705
-8.09327
-8.06498
-8.03197
-7.99404
-7.95099
-7.90264
-7.84881
-7.7893
-7.72397
-7.65263
-7.57514
-7.49135
-7.40114
-7.30437
-7.20094
-7.09074
-6.97369
-6.84971
-6.71875
-6.58075
-6.43569
-6.28354
-6.1243
-5.95797
-5.78459
-5.60419
-5.41683
-5.22259
-5.02155
-4.81382
-4.59952
-4.37879
-4.15178
-3.91867
-3.67963
-3.43486
-3.18456
-2.92898
-2.66833
-2.40288
-2.13288
-1.85861
-1.58035
-1.2984
-1.01306
-0.72463
-0.433443
-0.13983
0.155886
0.453386
0.752368
1.05252
1.35348
1.65488
1.9564
2.2577
2.55846
2.85836
3.15707
3.45429
3.7497
4.04301
4.33394
4.62219
4.90751
5.18963
5.46832
5.74334
6.01446
6.2815
6.54424
6.80251
7.05615
7.305
7.54893
7.78779
8.02149
8.24989
8.47292
8.69048
8.90248
9.10888
9.30963
9.5047
9.69403
9.87759
10.0554
10.2273
10.3934
10.5536
10.7078
10.8557
10.9978
11.1292
11.2656
11.3335
-7.03509
-7.03871
-7.04481
-7.05051
-7.05495
-7.05847
-7.06141
-7.06395
-7.06625
-7.06845
-7.07065
-7.07296
-7.07547
-7.07824
-7.08133
-7.08481
-7.08872
-7.09311
-7.09801
-7.10347
-7.10952
-7.11618
-7.12349
-7.13146
-7.14012
-7.14948
-7.15955
-7.17035
-7.18189
-7.19416
-7.20718
-7.22094
-7.23544
-7.25069
-7.26667
-7.28339
-7.30084
-7.31901
-7.33789
-7.35747
-7.37775
-7.3987
-7.42031
-7.44256
-7.46544
-7.48892
-7.51298
-7.53758
-7.56268
-7.58826
-7.61428
-7.6407
-7.66746
-7.69453
-7.72183
-7.74932
-7.77692
-7.80456
-7.83216
-7.85962
-7.88686
-7.91378
-7.94026
-7.96618
-7.99143
-8.01587
-8.03936
-8.06175
-8.0829
-8.10264
-8.12081
-8.13724
-8.15175
-8.16415
-8.17426
-8.18189
-8.18683
-8.18889
-8.18786
-8.18355
-8.17574
-8.16422
-8.14878
-8.12923
-8.10535
-8.07693
-8.04379
-8.0057
-7.9625
-7.91397
-7.85996
-7.80027
-7.73473
-7.6632
-7.58551
-7.50152
-7.41111
-7.31415
-7.21052
-7.10014
-6.98291
-6.85875
-6.72762
-6.58947
-6.44425
-6.29196
-6.13258
-5.96614
-5.79264
-5.61215
-5.4247
-5.23039
-5.02929
-4.82152
-4.6072
-4.38646
-4.15946
-3.92636
-3.68736
-3.44263
-3.1924
-2.93689
-2.67633
-2.41098
-2.1411
-1.86696
-1.58883
-1.30703
-1.02184
-0.733577
-0.442574
-0.149151
0.146376
0.443683
0.742476
1.04244
1.34321
1.64441
1.94573
2.24684
2.54741
2.84713
3.14567
3.44271
3.73796
4.03112
4.32189
4.61001
4.8952
5.17721
5.45578
5.7307
6.00174
6.2687
6.53137
6.78959
7.04319
7.292
7.5359
7.77476
8.00844
8.23685
8.45989
8.67747
8.8895
9.09594
9.29672
9.49181
9.68115
9.86471
10.0424
10.2143
10.3802
10.54
10.6937
10.8407
10.9815
11.111
11.2455
11.3082
-7.03564
-7.0392
-7.04523
-7.05104
-7.05567
-7.05941
-7.06257
-7.06535
-7.06789
-7.07033
-7.07279
-7.07536
-7.07813
-7.08117
-7.08454
-7.08829
-7.09247
-7.09712
-7.10229
-7.108
-7.11429
-7.12119
-7.12871
-7.13688
-7.14572
-7.15525
-7.16548
-7.17642
-7.18808
-7.20047
-7.21359
-7.22744
-7.24203
-7.25736
-7.27341
-7.2902
-7.30772
-7.32596
-7.34491
-7.36456
-7.38491
-7.40594
-7.42764
-7.44999
-7.47296
-7.49654
-7.5207
-7.54541
-7.57065
-7.59638
-7.62256
-7.64914
-7.67608
-7.70332
-7.73082
-7.75849
-7.78629
-7.81412
-7.84192
-7.86958
-7.89702
-7.92413
-7.95079
-7.97689
-8.0023
-8.02689
-8.05051
-8.07303
-8.09428
-8.11411
-8.13234
-8.14881
-8.16334
-8.17574
-8.18583
-8.19341
-8.19829
-8.20026
-8.19912
-8.19467
-8.18671
-8.17502
-8.15939
-8.13963
-8.11553
-8.08688
-8.05348
-8.01514
-7.97166
-7.92286
-7.86855
-7.80857
-7.74275
-7.67092
-7.59294
-7.50867
-7.41797
-7.32073
-7.21683
-7.10619
-6.9887
-6.8643
-6.73294
-6.59456
-6.44913
-6.29664
-6.13709
-5.97047
-5.79683
-5.61619
-5.42863
-5.23422
-5.03304
-4.8252
-4.61083
-4.39006
-4.16306
-3.92997
-3.69099
-3.44632
-3.19616
-2.94073
-2.68028
-2.41504
-2.1453
-1.8713
-1.59333
-1.31169
-1.02669
-0.738628
-0.447834
-0.15462
0.140689
0.437768
0.736346
1.03609
1.3366
1.63756
1.93864
2.23952
2.53986
2.83935
3.13766
3.43449
3.72953
4.02249
4.31307
4.601
4.88601
5.16785
5.44627
5.72105
5.99195
6.25878
6.52135
6.77946
7.03297
7.2817
7.52553
7.76433
7.99797
8.22634
8.44935
8.66691
8.87895
9.08538
9.28616
9.48124
9.67057
9.85408
10.0317
10.2034
10.3691
10.5285
10.6816
10.8277
10.9673
11.0949
11.2276
11.286
-7.03807
-7.04146
-7.04725
-7.05297
-7.05764
-7.06147
-7.06475
-7.06766
-7.07035
-7.07295
-7.07557
-7.07831
-7.08125
-7.08446
-7.088
-7.09191
-7.09625
-7.10106
-7.10637
-7.11222
-7.11864
-7.12565
-7.13329
-7.14157
-7.15051
-7.16014
-7.17045
-7.18147
-7.1932
-7.20566
-7.21884
-7.23275
-7.2474
-7.26279
-7.27891
-7.29577
-7.31336
-7.33168
-7.35072
-7.37047
-7.39093
-7.41207
-7.43388
-7.45634
-7.47944
-7.50316
-7.52746
-7.55234
-7.57775
-7.60367
-7.63004
-7.65682
-7.68396
-7.7114
-7.73909
-7.76695
-7.79493
-7.82295
-7.85091
-7.87874
-7.90633
-7.93357
-7.96036
-7.98656
-8.01206
-8.03671
-8.06038
-8.08292
-8.10416
-8.12396
-8.14214
-8.15853
-8.17296
-8.18523
-8.19517
-8.20257
-8.20725
-8.209
-8.20762
-8.20292
-8.19467
-8.18269
-8.16676
-8.14668
-8.12224
-8.09324
-8.05948
-8.02078
-7.97694
-7.92777
-7.87309
-7.81275
-7.74655
-7.67436
-7.59603
-7.51141
-7.42037
-7.3228
-7.21859
-7.10763
-6.98985
-6.86518
-6.73355
-6.59493
-6.44928
-6.29658
-6.13683
-5.97005
-5.79625
-5.61549
-5.42782
-5.23332
-5.03207
-4.82419
-4.6098
-4.38904
-4.16205
-3.92901
-3.6901
-3.44551
-3.19545
-2.94015
-2.67984
-2.41477
-2.1452
-1.8714
-1.59364
-1.31223
-1.02747
-0.739666
-0.44913
-0.156181
0.138845
0.435642
0.733949
1.0334
1.33359
1.63425
1.93503
2.23561
2.53565
2.83485
3.13288
3.42943
3.7242
4.01689
4.30721
4.5949
4.87968
5.16129
5.43951
5.71408
5.98479
6.25145
6.51385
6.77181
7.02518
7.27379
7.5175
7.7562
7.98975
8.21805
8.441
8.65852
8.87051
9.07692
9.27767
9.47272
9.662
9.84544
10.023
10.1945
10.3599
10.5189
10.6713
10.8165
10.9548
11.0807
11.2117
11.2666
-7.04212
-7.04528
-7.0507
-7.05619
-7.06076
-7.06455
-7.06782
-7.07075
-7.07346
-7.0761
-7.07878
-7.08157
-7.08457
-7.08784
-7.09142
-7.09539
-7.09978
-7.10463
-7.10998
-7.11587
-7.12233
-7.12938
-7.13705
-7.14535
-7.15431
-7.16395
-7.17429
-7.18532
-7.19707
-7.20955
-7.22276
-7.2367
-7.2514
-7.26684
-7.28302
-7.29994
-7.3176
-7.336
-7.35513
-7.37497
-7.39553
-7.41678
-7.43871
-7.4613
-7.48455
-7.50842
-7.53291
-7.55796
-7.58356
-7.60966
-7.63621
-7.66316
-7.69047
-7.71806
-7.74589
-7.77388
-7.80197
-7.83008
-7.85813
-7.88602
-7.91366
-7.94092
-7.9677
-7.99388
-8.01932
-8.04389
-8.06745
-8.08985
-8.11093
-8.13054
-8.14851
-8.16466
-8.17883
-8.19082
-8.20045
-8.20753
-8.21187
-8.21326
-8.21151
-8.20641
-8.19777
-8.18538
-8.16903
-8.14852
-8.12365
-8.09423
-8.06004
-8.02091
-7.97663
-7.92704
-7.87194
-7.81118
-7.74458
-7.672
-7.59329
-7.50831
-7.41692
-7.31901
-7.21448
-7.10322
-6.98516
-6.86022
-6.72835
-6.5895
-6.44365
-6.29077
-6.13086
-5.96394
-5.79003
-5.60918
-5.42145
-5.22691
-5.02565
-4.81778
-4.60343
-4.38273
-4.15583
-3.9229
-3.68412
-3.43969
-3.18981
-2.93471
-2.67463
-2.40981
-2.1405
-1.86697
-1.58951
-1.30842
-1.02399
-0.736526
-0.446325
-0.153735
0.140915
0.43736
0.735313
1.03436
1.33416
1.63442
1.93482
2.23501
2.53469
2.83351
3.13117
3.42737
3.72179
4.01414
4.30414
4.59151
4.87599
5.15732
5.43525
5.70957
5.98003
6.24646
6.50864
6.7664
7.01958
7.26801
7.51157
7.75013
7.98356
8.21175
8.43461
8.65205
8.86398
9.07033
9.27103
9.46602
9.65523
9.83858
10.016
10.1873
10.3523
10.5109
10.6627
10.807
10.944
11.0682
11.1975
11.2497
-7.04755
-7.05043
-7.05541
-7.06055
-7.06489
-7.06849
-7.07161
-7.0744
-7.07701
-7.07955
-7.08214
-7.08485
-7.08778
-7.09098
-7.09452
-7.09843
-7.10277
-7.10758
-7.11289
-7.11874
-7.12515
-7.13215
-7.13977
-7.14803
-7.15695
-7.16655
-7.17684
-7.18784
-7.19957
-7.21202
-7.22521
-7.23915
-7.25385
-7.26929
-7.28549
-7.30245
-7.32016
-7.33861
-7.35779
-7.37771
-7.39834
-7.41969
-7.44175
-7.46448
-7.48786
-7.51187
-7.53649
-7.56166
-7.58737
-7.61355
-7.64018
-7.6672
-7.69454
-7.72215
-7.74997
-7.77794
-7.80599
-7.83404
-7.86201
-7.88979
-7.91728
-7.94438
-7.97097
-7.99692
-8.02212
-8.04641
-8.06967
-8.09174
-8.11248
-8.13172
-8.14929
-8.16504
-8.17878
-8.19034
-8.19952
-8.20614
-8.21
-8.21092
-8.20869
-8.2031
-8.19397
-8.18108
-8.16424
-8.14324
-8.11789
-8.08797
-8.05331
-8.01371
-7.96898
-7.91894
-7.86341
-7.80223
-7.73524
-7.66228
-7.58321
-7.49787
-7.40616
-7.30795
-7.20313
-7.09161
-6.97332
-6.84817
-6.71611
-6.5771
-6.43111
-6.27812
-6.11813
-5.95115
-5.77722
-5.59637
-5.40866
-5.21417
-5.013
-4.80524
-4.59103
-4.3705
-4.14379
-3.91108
-3.67254
-3.42838
-3.17879
-2.92401
-2.66427
-2.3998
-2.13087
-1.85774
-1.5807
-1.30005
-1.01605
-0.729017
-0.439275
-0.147168
0.147001
0.443003
0.740481
1.03901
1.3383
1.63807
1.93798
2.23769
2.53689
2.83524
3.13245
3.4282
3.72218
4.01411
4.3037
4.59068
4.87477
5.15574
5.43333
5.70731
5.97747
6.2436
6.5055
6.76301
7.01594
7.26416
7.50752
7.7459
7.97917
8.20722
8.42996
8.64729
8.85914
9.06541
9.26605
9.46097
9.6501
9.83334
10.0106
10.1817
10.3464
10.5045
10.6556
10.799
10.9348
11.0575
11.185
11.2353
-7.05439
-7.05698
-7.06148
-7.06617
-7.07012
-7.07337
-7.07615
-7.07862
-7.08093
-7.08321
-7.08555
-7.08805
-7.09078
-7.09381
-7.09719
-7.10096
-7.10517
-7.10985
-7.11504
-7.12076
-7.12704
-7.13391
-7.1414
-7.14953
-7.15832
-7.16779
-7.17797
-7.18885
-7.20047
-7.21282
-7.22592
-7.23978
-7.2544
-7.26977
-7.28591
-7.30281
-7.32048
-7.33892
-7.3581
-7.37803
-7.39869
-7.42006
-7.44212
-7.46486
-7.48823
-7.51222
-7.53679
-7.5619
-7.58751
-7.61359
-7.64007
-7.66692
-7.69408
-7.72148
-7.74908
-7.77681
-7.8046
-7.83237
-7.86002
-7.88745
-7.91457
-7.94126
-7.96742
-7.99291
-8.01762
-8.04142
-8.06416
-8.0857
-8.10589
-8.12457
-8.14159
-8.15677
-8.16993
-8.18091
-8.18951
-8.19555
-8.19884
-8.19919
-8.19639
-8.19025
-8.18056
-8.16714
-8.14977
-8.12825
-8.10239
-8.072
-8.03686
-7.99681
-7.95165
-7.9012
-7.84529
-7.78375
-7.71642
-7.64313
-7.56376
-7.47815
-7.38619
-7.28776
-7.18274
-7.07106
-6.95262