/*--------------------------------*- C++ -*----------------------------------*\
| =========                 |                                                 |
| \\      /  F ield         | OpenFOAM: The Open Source CFD Toolbox           |
|  \\    /   O peration     | Version:  2306                                  |
|   \\  /    A nd           | Website:  www.openfoam.com                      |
|    \\/     M anipulation  |                                                 |
\*---------------------------------------------------------------------------*/
FoamFile
{
    version     2.0;
    format      ascii;
    arch        "LSB;label=32;scalar=64";
    class       surfaceScalarField;
    location    "280";
    object      phi;
}
// * * * * * * * * * * * * * * * * * * * * * * * * * * * * * * * * * * * * * //

dimensions      [0 3 -1 0 0 0 0];

oriented        oriented;

internalField   nonuniform List<scalar> 
24170
(
3.11512e-06
7.32903e-08
3.01296e-06
1.02152e-07
2.91749e-06
9.54718e-08
2.82631e-06
9.11798e-08
2.7403e-06
8.60085e-08
2.66278e-06
7.7523e-08
2.59488e-06
6.78959e-08
2.53596e-06
5.89164e-08
2.48491e-06
5.10506e-08
2.44064e-06
4.42702e-08
2.40219e-06
3.8449e-08
2.36875e-06
3.34441e-08
2.33964e-06
2.91077e-08
2.31432e-06
2.53171e-08
2.29249e-06
2.18325e-08
2.27366e-06
1.88297e-08
2.25762e-06
1.60401e-08
1.26775e-08
2.24494e-06
3.46865e-06
2.18857e-08
3.48678e-06
8.40256e-08
3.49345e-06
8.87961e-08
3.49232e-06
9.23088e-08
3.48432e-06
9.40017e-08
3.47072e-06
9.11292e-08
3.45278e-06
8.58364e-08
3.43173e-06
7.99592e-08
3.40869e-06
7.40885e-08
3.38456e-06
6.84015e-08
3.36005e-06
6.29663e-08
3.33565e-06
5.78399e-08
3.31175e-06
5.30065e-08
3.28861e-06
4.84533e-08
3.26643e-06
4.40113e-08
3.24543e-06
3.98332e-08
3.22638e-06
3.50924e-08
2.88449e-08
3.21021e-06
3.66801e-06
1.63921e-08
3.68031e-06
7.17255e-08
3.69001e-06
7.91008e-08
3.70002e-06
8.22892e-08
3.70913e-06
8.48921e-08
3.71622e-06
8.40402e-08
3.72119e-06
8.08717e-08
3.72423e-06
7.69151e-08
3.72559e-06
7.27317e-08
3.72551e-06
6.8474e-08
3.72426e-06
6.42191e-08
3.72206e-06
6.00402e-08
3.71912e-06
5.59519e-08
3.71563e-06
5.19426e-08
3.71173e-06
4.79078e-08
3.70778e-06
4.37826e-08
3.70379e-06
3.90775e-08
3.3227e-08
3.69941e-06
3.92495e-06
1.68274e-08
3.93556e-06
6.1115e-08
3.94312e-06
7.15423e-08
3.95014e-06
7.52658e-08
3.95682e-06
7.82097e-08
3.96261e-06
7.82495e-08
3.96758e-06
7.59096e-08
3.9719e-06
7.2588e-08
3.97569e-06
6.89459e-08
3.97899e-06
6.51702e-08
3.98187e-06
6.13423e-08
3.98438e-06
5.75312e-08
3.98657e-06
5.37546e-08
3.98852e-06
4.99934e-08
3.99027e-06
4.61584e-08
3.99191e-06
4.2141e-08
3.99329e-06
3.76951e-08
3.25187e-08
3.994e-06
4.20772e-06
1.62311e-08
4.21609e-06
5.27501e-08
4.22226e-06
6.53723e-08
4.22774e-06
6.97819e-08
4.23319e-06
7.27672e-08
4.23821e-06
7.32231e-08
4.24274e-06
7.13832e-08
4.24686e-06
6.84657e-08
4.25065e-06
6.51573e-08
4.25415e-06
6.16681e-08
4.25741e-06
5.80853e-08
4.26046e-06
5.44765e-08
4.26335e-06
5.08644e-08
4.26611e-06
4.72312e-08
4.26877e-06
4.3506e-08
4.27131e-06
3.95994e-08
4.27363e-06
3.53752e-08
3.06994e-08
4.27545e-06
4.51042e-06
1.48954e-08
4.51713e-06
4.6046e-08
4.52283e-06
5.9665e-08
4.52797e-06
6.46496e-08
4.5331e-06
6.76308e-08
4.53796e-06
6.83663e-08
4.54239e-06
6.69556e-08
4.54644e-06
6.44147e-08
4.55019e-06
6.14074e-08
4.55369e-06
5.81645e-08
4.55699e-06
5.47852e-08
4.56012e-06
5.13401e-08
4.56313e-06
4.78599e-08
4.56603e-06
4.4334e-08
4.56882e-06
4.07141e-08
4.57148e-06
3.69383e-08
4.57392e-06
3.29377e-08
2.86789e-08
4.57594e-06
4.83415e-06
1.34677e-08
4.83991e-06
4.0286e-08
4.84554e-06
5.40297e-08
4.85066e-06
5.95326e-08
4.85572e-06
6.25713e-08
4.86055e-06
6.3539e-08
4.86499e-06
6.25113e-08
4.86908e-06
6.0324e-08
4.87289e-06
5.76017e-08
4.87646e-06
5.45921e-08
4.87984e-06
5.14076e-08
4.88306e-06
4.81229e-08
4.88614e-06
4.47775e-08
4.8891e-06
4.13711e-08
4.89194e-06
3.78781e-08
4.89461e-06
3.42636e-08
4.89704e-06
3.05063e-08
2.66293e-08
4.89909e-06
5.18096e-06
1.20923e-08
5.18606e-06
3.51872e-08
5.19158e-06
4.85021e-08
5.19672e-06
5.44003e-08
5.20177e-06
5.75142e-08
5.20665e-06
5.86624e-08
5.21119e-06
5.79682e-08
5.2154e-06
5.61111e-08
5.21934e-06
5.36649e-08
5.22304e-06
5.08881e-08
5.22655e-06
4.79032e-08
5.22988e-06
4.47899e-08
5.23306e-06
4.15957e-08
5.2361e-06
3.83327e-08
5.23898e-06
3.49952e-08
5.24168e-06
3.15725e-08
5.24411e-06
2.80729e-08
2.45431e-08
5.24619e-06
5.55268e-06
1.07539e-08
5.55721e-06
3.06574e-08
5.56252e-06
4.31874e-08
5.56764e-06
4.92818e-08
5.57271e-06
5.24406e-08
5.57767e-06
5.37105e-08
5.58234e-06
5.32962e-08
5.58671e-06
5.17429e-08
5.59081e-06
4.95637e-08
5.59467e-06
4.70207e-08
5.59833e-06
4.42437e-08
5.60181e-06
4.13166e-08
5.60511e-06
3.82941e-08
5.60824e-06
3.52004e-08
5.61119e-06
3.20464e-08
5.61392e-06
2.88406e-08
5.61639e-06
2.56075e-08
2.24034e-08
5.61853e-06
5.95107e-06
9.45864e-09
5.95511e-06
2.66165e-08
5.96017e-06
3.81338e-08
5.96524e-06
4.42084e-08
5.97032e-06
4.73624e-08
5.97533e-06
4.86993e-08
5.98012e-06
4.85066e-08
5.98464e-06
4.72234e-08
5.98891e-06
4.52961e-08
5.99294e-06
4.29833e-08
5.99677e-06
4.04198e-08
6.00039e-06
3.76922e-08
6.00382e-06
3.48607e-08
6.00706e-06
3.19603e-08
6.0101e-06
2.90141e-08
6.01289e-06
2.60444e-08
6.01542e-06
2.30832e-08
2.01889e-08
6.01763e-06
6.37804e-06
8.22709e-09
6.38168e-06
2.29832e-08
6.38646e-06
3.33526e-08
6.39146e-06
3.92083e-08
6.39652e-06
4.22988e-08
6.40157e-06
4.36547e-08
6.40645e-06
4.36247e-08
6.4111e-06
4.2572e-08
6.41552e-06
4.08772e-08
6.41972e-06
3.87873e-08
6.4237e-06
3.6439e-08
6.42747e-06
3.39208e-08
6.43103e-06
3.12963e-08
6.43438e-06
2.86084e-08
6.43751e-06
2.58889e-08
6.44038e-06
2.31682e-08
6.44299e-06
2.04809e-08
1.78829e-08
6.44529e-06
5.74182e-06
7.23783e-09
5.74463e-06
2.01821e-08
5.74846e-06
2.95211e-08
5.75261e-06
3.50536e-08
5.75687e-06
3.80407e-08
5.76114e-06
3.93809e-08
5.76532e-06
3.9445e-08
5.76934e-06
3.85548e-08
5.77318e-06
3.70404e-08
5.77683e-06
3.51321e-08
5.78031e-06
3.29656e-08
5.7836e-06
3.06297e-08
5.7867e-06
2.81896e-08
5.78962e-06
2.56925e-08
5.79233e-06
2.31749e-08
5.79483e-06
2.06707e-08
5.7971e-06
1.8214e-08
1.58584e-08
5.79912e-06
6.99922e-06
6.1767e-09
7.00219e-06
1.72063e-08
7.00635e-06
2.53614e-08
7.011e-06
3.04106e-08
7.01583e-06
3.32041e-08
7.02073e-06
3.44811e-08
7.02557e-06
3.46099e-08
7.03025e-06
3.38715e-08
7.03475e-06
3.25436e-08
7.03904e-06
3.08343e-08
7.04314e-06
2.88746e-08
7.04701e-06
2.67519e-08
7.05067e-06
2.45315e-08
7.0541e-06
2.22626e-08
7.05729e-06
1.99845e-08
7.06023e-06
1.77323e-08
7.06291e-06
1.55377e-08
1.34503e-08
7.06531e-06
8.53197e-06
5.05274e-09
8.53509e-06
1.40834e-08
8.53955e-06
2.09037e-08
8.54467e-06
2.52897e-08
8.5501e-06
2.77733e-08
8.55566e-06
2.89204e-08
8.56121e-06
2.90688e-08
8.56662e-06
2.84591e-08
8.57184e-06
2.73164e-08
8.57686e-06
2.58205e-08
8.58164e-06
2.40926e-08
8.58618e-06
2.22159e-08
8.59046e-06
2.02528e-08
8.59447e-06
1.82521e-08
8.5982e-06
1.62528e-08
8.60164e-06
1.42889e-08
8.60479e-06
1.2388e-08
1.0594e-08
8.60765e-06
1.04004e-05
3.87725e-09
1.04036e-05
1.08352e-08
1.04084e-05
1.61731e-08
1.0414e-05
1.97052e-08
1.042e-05
2.17378e-08
1.04262e-05
2.26678e-08
1.04325e-05
2.27746e-08
1.04387e-05
2.22565e-08
1.04448e-05
2.12881e-08
1.04506e-05
2.00146e-08
1.04561e-05
1.85413e-08
1.04614e-05
1.69427e-08
1.04664e-05
1.52751e-08
1.0471e-05
1.35831e-08
1.04754e-05
1.19023e-08
1.04794e-05
1.02629e-08
1.04831e-05
8.68725e-09
7.21286e-09
1.04865e-05
1.2678e-05
2.65782e-09
1.26814e-05
7.45955e-09
1.26864e-05
1.11717e-08
1.26924e-05
1.36577e-08
1.26991e-05
1.50782e-08
1.27061e-05
1.56818e-08
1.27132e-05
1.56712e-08
1.27202e-05
1.51948e-08
1.27272e-05
1.43786e-08
1.27338e-05
1.33295e-08
1.27403e-05
1.21294e-08
1.27464e-05
1.08385e-08
1.27521e-05
9.50281e-09
1.27576e-05
8.15856e-09
1.27626e-05
6.83482e-09
1.27673e-05
5.55551e-09
1.27717e-05
4.33696e-09
3.20953e-09
1.27757e-05
1.54545e-05
1.38606e-09
1.5458e-05
3.91347e-09
1.54633e-05
5.84473e-09
1.54699e-05
7.09148e-09
1.54772e-05
7.72588e-09
1.5485e-05
7.87674e-09
1.54931e-05
7.66064e-09
1.55011e-05
7.16771e-09
1.5509e-05
6.47402e-09
1.55167e-05
5.64493e-09
1.55241e-05
4.73251e-09
1.55311e-05
3.77622e-09
1.55378e-05
2.80654e-09
1.55441e-05
1.84765e-09
1.55501e-05
9.18753e-10
1.55556e-05
3.54704e-11
1.55607e-05
-7.92739e-10
-1.54312e-09
1.55655e-05
1.8839e-05
2.27995e-11
1.88428e-05
7.27039e-11
1.88487e-05
1.53184e-11
1.8856e-05
-1.8988e-10
1.88642e-05
-5.24665e-10
1.8873e-05
-9.60134e-10
1.88822e-05
-1.47197e-09
1.88914e-05
-2.03798e-09
1.89005e-05
-2.63584e-09
1.89094e-05
-3.24596e-09
1.8918e-05
-3.85284e-09
1.89262e-05
-4.44423e-09
1.8934e-05
-5.01007e-09
1.89414e-05
-5.54208e-09
1.89483e-05
-6.03365e-09
1.89549e-05
-6.47926e-09
1.89609e-05
-6.87699e-09
-7.21227e-09
1.89666e-05
2.29649e-05
-1.53312e-09
2.29693e-05
-4.35685e-09
2.29761e-05
-6.75187e-09
2.29846e-05
-8.69057e-09
2.29943e-05
-1.01899e-08
2.30046e-05
-1.13362e-08
2.30154e-05
-1.22189e-08
2.30262e-05
-1.28923e-08
2.3037e-05
-1.33932e-08
2.30475e-05
-1.37568e-08
2.30577e-05
-1.40137e-08
2.30674e-05
-1.4186e-08
2.30767e-05
-1.42889e-08
2.30855e-05
-1.43335e-08
2.30938e-05
-1.43282e-08
2.31016e-05
-1.42791e-08
2.31089e-05
-1.41925e-08
-1.40624e-08
2.31157e-05
1.68119e-05
-2.73657e-09
1.68153e-05
-7.76288e-09
1.68205e-05
-1.19713e-08
1.68271e-05
-1.5209e-08
1.68344e-05
-1.752e-08
1.68422e-05
-1.91375e-08
1.68502e-05
-2.02554e-08
1.68583e-05
-2.09736e-08
1.68663e-05
-2.13697e-08
1.6874e-05
-2.15237e-08
1.68815e-05
-2.15012e-08
1.68887e-05
-2.13487e-08
1.68955e-05
-2.10993e-08
1.69019e-05
-2.07785e-08
1.6908e-05
-2.04054e-08
1.69137e-05
-1.99934e-08
1.69191e-05
-1.95536e-08
-1.90852e-08
1.69241e-05
1.46357e-05
-3.87069e-09
1.4639e-05
-1.10274e-08
1.4644e-05
-1.70158e-08
1.46502e-05
-2.14123e-08
1.46571e-05
-2.43616e-08
1.46643e-05
-2.63368e-08
1.46716e-05
-2.76131e-08
1.46789e-05
-2.83099e-08
1.46861e-05
-2.85541e-08
1.46931e-05
-2.8477e-08
1.46998e-05
-2.81738e-08
1.47061e-05
-2.77084e-08
1.47121e-05
-2.71285e-08
1.47178e-05
-2.64715e-08
1.47232e-05
-2.57653e-08
1.47282e-05
-2.50293e-08
1.4733e-05
-2.42781e-08
-2.35149e-08
1.47374e-05
1.27412e-05
-4.89593e-09
1.27444e-05
-1.4273e-08
1.27495e-05
-2.21374e-08
1.27556e-05
-2.74657e-08
1.2762e-05
-3.08319e-08
1.27688e-05
-3.30821e-08
1.27756e-05
-3.44615e-08
1.27824e-05
-3.50701e-08
1.2789e-05
-3.51094e-08
1.27953e-05
-3.47705e-08
1.28012e-05
-3.41726e-08
1.28069e-05
-3.33924e-08
1.28123e-05
-3.24907e-08
1.28173e-05
-3.15152e-08
1.28221e-05
-3.04995e-08
1.28265e-05
-2.94661e-08
1.28307e-05
-2.84303e-08
-2.73959e-08
1.28345e-05
1.10917e-05
-5.67856e-09
1.1095e-05
-1.75429e-08
1.11004e-05
-2.75437e-08
1.11064e-05
-3.34577e-08
1.11125e-05
-3.69887e-08
1.11189e-05
-3.94277e-08
1.11253e-05
-4.08336e-08
1.11315e-05
-4.12914e-08
1.11375e-05
-4.10975e-08
1.11432e-05
-4.04883e-08
1.11486e-05
-3.95929e-08
1.11537e-05
-3.85006e-08
1.11585e-05
-3.72862e-08
1.1163e-05
-3.60073e-08
1.11672e-05
-3.47025e-08
1.11711e-05
-3.33976e-08
1.11748e-05
-3.2111e-08
-3.08509e-08
1.11783e-05
9.65564e-06
-6.10488e-09
9.65905e-06
-2.09496e-08
9.66465e-06
-3.31457e-08
9.67045e-06
-3.92579e-08
9.67637e-06
-4.29112e-08
9.68244e-06
-4.54914e-08
9.68839e-06
-4.67874e-08
9.6941e-06
-4.6999e-08
9.69954e-06
-4.65403e-08
9.70471e-06
-4.56588e-08
9.70959e-06
-4.44746e-08
9.71418e-06
-4.3086e-08
9.71847e-06
-4.15796e-08
9.72248e-06
-4.0021e-08
9.72623e-06
-3.84523e-08
9.72974e-06
-3.68999e-08
9.733e-06
-3.53769e-08
-3.38773e-08
9.73603e-06
8.40494e-06
-5.69716e-09
8.40933e-06
-2.53306e-08
8.41475e-06
-3.8571e-08
8.41987e-06
-4.43754e-08
8.42545e-06
-4.84911e-08
8.43132e-06
-5.13636e-08
8.43705e-06
-5.25158e-08
8.44249e-06
-5.24373e-08
8.44763e-06
-5.16829e-08
8.45247e-06
-5.05017e-08
8.45701e-06
-4.901e-08
8.46124e-06
-4.73169e-08
8.46518e-06
-4.5519e-08
8.46884e-06
-4.36875e-08
8.47226e-06
-4.18665e-08
8.47544e-06
-4.00851e-08
8.47843e-06
-3.83676e-08
-3.6724e-08
8.48128e-06
7.31365e-06
-2.06007e-09
7.32071e-06
-3.23947e-08
7.32652e-06
-4.43788e-08
7.33133e-06
-4.91904e-08
7.33672e-06
-5.38779e-08
7.34239e-06
-5.70332e-08
7.34793e-06
-5.80586e-08
7.35325e-06
-5.77564e-08
7.35832e-06
-5.67531e-08
7.3631e-06
-5.52812e-08
7.36757e-06
-5.34743e-08
7.37171e-06
-5.14627e-08
7.37555e-06
-4.93594e-08
7.3791e-06
-4.72401e-08
7.38239e-06
-4.51546e-08
7.38544e-06
-4.31327e-08
7.38826e-06
-4.11851e-08
-3.92607e-08
7.39079e-06
6.36047e-06
7.53671e-09
6.3703e-06
-4.22261e-08
6.37819e-06
-5.22681e-08
6.38526e-06
-5.62598e-08
6.39239e-06
-6.10059e-08
6.39901e-06
-6.3654e-08
6.405e-06
-6.40547e-08
6.41056e-06
-6.33121e-08
6.41577e-06
-6.19613e-08
6.42062e-06
-6.01372e-08
6.42511e-06
-5.79656e-08
6.42924e-06
-5.55879e-08
6.43301e-06
-5.31326e-08
6.43645e-06
-5.06766e-08
6.43957e-06
-4.82778e-08
6.44242e-06
-4.59773e-08
6.44504e-06
-4.38065e-08
-4.17925e-08
6.44757e-06
5.53917e-06
1.38306e-08
5.54752e-06
-5.0579e-08
5.55587e-06
-6.06149e-08
5.56613e-06
-6.65176e-08
5.57733e-06
-7.22109e-08
5.58783e-06
-7.41551e-08
5.59705e-06
-7.32774e-08
5.60502e-06
-7.12762e-08
5.61179e-06
-6.87369e-08
5.61746e-06
-6.57997e-08
5.62208e-06
-6.25882e-08
5.62575e-06
-5.92572e-08
5.62856e-06
-5.59423e-08
5.6306e-06
-5.2718e-08
5.63196e-06
-4.96358e-08
5.63274e-06
-4.67648e-08
5.63305e-06
-4.41152e-08
-4.17795e-08
5.63304e-06
4.87157e-06
-3.01344e-08
4.88648e-06
-6.54849e-08
4.89722e-06
-7.13578e-08
4.906e-06
-7.52957e-08
4.91305e-06
-7.92592e-08
4.91733e-06
-7.84385e-08
4.91816e-06
-7.41139e-08
4.91544e-06
-6.85475e-08
4.90945e-06
-6.27559e-08
4.90074e-06
-5.70804e-08
4.88984e-06
-5.16916e-08
4.87727e-06
-4.66888e-08
4.86348e-06
-4.21537e-08
4.84884e-06
-3.80784e-08
4.83365e-06
-3.4449e-08
4.81818e-06
-3.1289e-08
4.80268e-06
-2.86136e-08
-2.69181e-08
4.78782e-06
4.17254e-06
4.10706e-06
4.0357e-06
3.9604e-06
3.88114e-06
3.80271e-06
3.72859e-06
3.66004e-06
3.59729e-06
3.54021e-06
3.48852e-06
3.44183e-06
3.39967e-06
3.3616e-06
3.32715e-06
3.29586e-06
3.26724e-06
3.24033e-06
5.89344e-09
-5.89643e-09
1.77837e-08
-1.18945e-08
3.15564e-08
-1.3777e-08
4.48487e-08
-1.32957e-08
5.6303e-08
-1.14583e-08
6.52569e-08
-8.95717e-09
7.1489e-08
-6.23628e-09
7.50358e-08
-3.55012e-09
7.60707e-08
-1.03926e-09
7.48799e-08
1.18742e-09
7.18377e-08
3.03751e-09
6.7332e-08
4.50212e-09
6.167e-08
5.65704e-09
5.50598e-08
6.6064e-09
4.75977e-08
7.4566e-09
3.92951e-08
8.2985e-09
3.00943e-08
9.19481e-09
1.99074e-08
1.01824e-08
8.63681e-09
1.12641e-08
-3.8276e-09
1.24598e-08
-1.77141e-08
1.38802e-08
-3.32233e-08
1.5505e-08
-5.04916e-08
1.72623e-08
-6.96731e-08
1.91776e-08
-9.09261e-08
2.12471e-08
-1.14381e-07
2.34504e-08
-1.40142e-07
2.57555e-08
-1.68268e-07
2.81215e-08
-1.98775e-07
3.05e-08
-2.31615e-07
3.28358e-08
-2.66693e-07
3.50715e-08
-3.03861e-07
3.71633e-08
-3.42946e-07
3.90798e-08
-3.83749e-07
4.07979e-08
-4.26056e-07
4.23018e-08
-4.6964e-07
4.35797e-08
-5.14274e-07
4.46294e-08
-5.59736e-07
4.54578e-08
-6.05817e-07
4.60774e-08
-6.52326e-07
4.65053e-08
-6.9909e-07
4.6761e-08
-7.45959e-07
4.68658e-08
-7.92804e-07
4.68417e-08
-8.39516e-07
4.67098e-08
-8.86009e-07
4.64908e-08
-9.3222e-07
4.62074e-08
-9.7811e-07
4.58887e-08
-1.02368e-06
4.55706e-08
-1.06896e-06
4.5272e-08
-1.11395e-06
4.49886e-08
-1.15867e-06
4.4717e-08
-1.20313e-06
4.4455e-08
-1.24733e-06
4.4201e-08
-1.29129e-06
4.39531e-08
-1.335e-06
4.37097e-08
-1.37847e-06
4.34686e-08
-1.42171e-06
4.32276e-08
-1.46469e-06
4.29841e-08
-1.50743e-06
4.27354e-08
-1.54992e-06
4.24786e-08
-1.59213e-06
4.22108e-08
-1.63406e-06
4.19289e-08
-1.6757e-06
4.16301e-08
-1.71701e-06
4.13112e-08
-1.75799e-06
4.09697e-08
-1.79859e-06
4.06025e-08
-1.8388e-06
4.02073e-08
-1.87859e-06
3.97815e-08
-1.91791e-06
3.9323e-08
-1.95675e-06
3.88294e-08
-1.99505e-06
3.82991e-08
-2.03278e-06
3.77302e-08
-2.0699e-06
3.71212e-08
-2.10638e-06
3.64707e-08
-2.14216e-06
3.57777e-08
-2.17721e-06
3.5041e-08
-2.21147e-06
3.426e-08
-2.24491e-06
3.34341e-08
-2.27747e-06
3.2563e-08
-2.30912e-06
3.16461e-08
-2.33981e-06
3.06838e-08
-2.36949e-06
2.96757e-08
-2.39812e-06
2.86225e-08
-2.42565e-06
2.75237e-08
-2.45203e-06
2.63805e-08
-2.47723e-06
2.51927e-08
-2.50119e-06
2.39617e-08
-2.52388e-06
2.26873e-08
-2.54525e-06
2.13705e-08
-2.56526e-06
2.00112e-08
-2.58387e-06
1.86091e-08
-2.60103e-06
1.71637e-08
-2.61671e-06
1.56737e-08
-2.63085e-06
1.41368e-08
-2.6434e-06
1.2549e-08
-2.65431e-06
1.09052e-08
-2.66351e-06
9.19849e-09
-2.67093e-06
7.41879e-09
-2.67649e-06
5.54959e-09
-2.68006e-06
3.57373e-09
-2.68158e-06
1.51044e-09
-2.68107e-06
-5.20403e-10
-2.67872e-06
-2.35164e-09
-2.67471e-06
-4.02343e-09
-2.66906e-06
-5.66411e-09
-2.66177e-06
-7.29856e-09
-2.65284e-06
-8.93666e-09
-2.64227e-06
-1.05801e-08
-2.63005e-06
-1.22275e-08
-2.61618e-06
-1.38779e-08
-2.60065e-06
-1.55288e-08
-2.58348e-06
-1.7179e-08
-2.56466e-06
-1.88255e-08
-2.5442e-06
-2.04672e-08
-2.5221e-06
-2.2101e-08
-2.49838e-06
-2.3726e-08
-2.47304e-06
-2.53389e-08
-2.4461e-06
-2.69386e-08
-2.41758e-06
-2.85223e-08
-2.38749e-06
-3.0089e-08
-2.35585e-06
-3.1636e-08
-2.3227e-06
-3.31622e-08
-2.28804e-06
-3.4664e-08
-2.2519e-06
-3.61401e-08
-2.21432e-06
-3.75869e-08
-2.17532e-06
-3.90036e-08
-2.13493e-06
-4.0387e-08
-2.09319e-06
-4.17368e-08
-2.05014e-06
-4.30506e-08
-2.0058e-06
-4.43288e-08
-1.96023e-06
-4.55694e-08
-1.91344e-06
-4.6772e-08
-1.8655e-06
-4.7934e-08
-1.81643e-06
-4.90572e-08
-1.76627e-06
-5.01349e-08
-1.7151e-06
-5.11616e-08
-1.66293e-06
-5.21422e-08
-1.60984e-06
-5.30796e-08
-1.55585e-06
-5.39681e-08
-1.50103e-06
-5.48054e-08
-1.44542e-06
-5.55911e-08
-1.38908e-06
-5.63251e-08
-1.33206e-06
-5.70071e-08
-1.27441e-06
-5.76365e-08
-1.21619e-06
-5.82135e-08
-1.15745e-06
-5.87376e-08
-1.09824e-06
-5.92093e-08
-1.03861e-06
-5.96286e-08
-9.78609e-07
-5.99962e-08
-9.18299e-07
-6.03124e-08
-8.57725e-07
-6.05783e-08
-7.96937e-07
-6.07946e-08
-7.35982e-07
-6.09627e-08
-6.74909e-07
-6.10837e-08
-6.13761e-07
-6.11593e-08
-5.52585e-07
-6.11906e-08
-4.9142e-07
-6.11799e-08
-4.30309e-07
-6.11284e-08
-3.6929e-07
-6.10379e-08
-3.08401e-07
-6.09086e-08
-2.47679e-07
-6.07425e-08
-1.87163e-07
-6.05379e-08
-1.26884e-07
-6.03015e-08
-6.68658e-08
-6.00412e-08
-7.2078e-09
-5.96814e-08
5.21197e-08
-5.93508e-08
1.11119e-07
-5.90214e-08
1.69667e-07
-5.85705e-08
2.27757e-07
-5.81115e-08
2.85389e-07
-5.76532e-08
3.4255e-07
-5.71812e-08
3.992e-07
-5.66699e-08
4.55258e-07
-5.60776e-08
5.10571e-07
-5.53325e-08
5.64853e-07
-5.42996e-08
6.17527e-07
-5.26924e-08
6.67391e-07
-4.98801e-08
7.1146e-07
-4.40841e-08
7.42727e-07
-3.12797e-08
1.10419e-08
7.31673e-07
1.14297e-08
-1.73293e-08
2.33243e-08
-2.3793e-08
3.19406e-08
-2.23963e-08
3.74557e-08
-1.8813e-08
4.04402e-08
-1.44449e-08
4.12755e-08
-9.79444e-09
4.01871e-08
-5.14997e-09
3.73328e-08
-6.97743e-10
3.28417e-08
3.44957e-09
2.67959e-08
7.23127e-09
1.92033e-08
1.06278e-08
1.00409e-08
1.36625e-08
-7.1077e-10
1.64062e-08
-1.30709e-08
1.89644e-08
-2.70704e-08
2.14537e-08
-4.27544e-08
2.39803e-08
-6.01923e-08
2.66303e-08
-7.94733e-08
2.94612e-08
-1.00714e-07
3.25026e-08
-1.24027e-07
3.57708e-08
-1.49429e-07
3.92795e-08
-1.76946e-07
4.30208e-08
-2.06653e-07
4.69664e-08
-2.38553e-07
5.10765e-08
-2.72603e-07
5.52941e-08
-3.08701e-07
5.95467e-08
-3.467e-07
6.37522e-08
-3.86406e-07
6.78253e-08
-4.27598e-07
7.16889e-08
-4.70046e-07
7.5282e-08
-5.13532e-07
7.85543e-08
-5.57833e-07
8.1462e-08
-6.02733e-07
8.39766e-08
-6.48023e-07
8.6086e-08
-6.93516e-07
8.77923e-08
-7.39045e-07
8.9106e-08
-7.84467e-07
9.00491e-08
-8.29667e-07
9.06557e-08
-8.74556e-07
9.09647e-08
-9.1907e-07
9.10171e-08
-9.63165e-07
9.08539e-08
-1.00682e-06
9.0515e-08
-1.05001e-06
9.0038e-08
-1.09276e-06
8.94571e-08
-1.13508e-06
8.8804e-08
-1.17698e-06
8.81085e-08
-1.21849e-06
8.73995e-08
-1.25962e-06
8.66999e-08
-1.30037e-06
8.6021e-08
-1.34075e-06
8.5364e-08
-1.38076e-06
8.4728e-08
-1.42042e-06
8.4111e-08
-1.45973e-06
8.35097e-08
-1.4987e-06
8.29203e-08
-1.53733e-06
8.23384e-08
-1.57563e-06
8.17591e-08
-1.61358e-06
8.11773e-08
-1.65118e-06
8.05876e-08
-1.68844e-06
7.99844e-08
-1.72532e-06
7.93623e-08
-1.76183e-06
7.87157e-08
-1.79794e-06
7.80391e-08
-1.83364e-06
7.73271e-08
-1.86891e-06
7.65746e-08
-1.90372e-06
7.57768e-08
-1.93805e-06
7.49289e-08
-1.97187e-06
7.40266e-08
-2.00515e-06
7.3066e-08
-2.03788e-06
7.20432e-08
-2.07e-06
7.09548e-08
-2.1015e-06
6.97979e-08
-2.13235e-06
6.85696e-08
-2.16249e-06
6.72675e-08
-2.19191e-06
6.58896e-08
-2.22057e-06
6.4434e-08
-2.24843e-06
6.28994e-08
-2.27546e-06
6.12847e-08
-2.30162e-06
5.9589e-08
-2.32687e-06
5.7812e-08
-2.35118e-06
5.59532e-08
-2.37451e-06
5.40128e-08
-2.39683e-06
5.19909e-08
-2.4181e-06
4.98881e-08
-2.43828e-06
4.77049e-08
-2.45735e-06
4.54423e-08
-2.47526e-06
4.31012e-08
-2.49198e-06
4.0683e-08
-2.50748e-06
3.81886e-08
-2.52173e-06
3.56194e-08
-2.53469e-06
3.29762e-08
-2.54634e-06
3.02599e-08
-2.55665e-06
2.74711e-08
-2.56559e-06
2.46108e-08
-2.57314e-06
2.16795e-08
-2.57927e-06
1.86777e-08
-2.58397e-06
1.56068e-08
-2.58724e-06
1.24687e-08
-2.5891e-06
9.26691e-09
-2.58956e-06
6.00997e-09
-2.58871e-06
2.72286e-09
-2.58666e-06
-5.47615e-10
-2.58342e-06
-3.76649e-09
-2.57882e-06
-6.95946e-09
-2.57268e-06
-1.01634e-08
-2.56497e-06
-1.33816e-08
-2.55566e-06
-1.66137e-08
-2.54475e-06
-1.98603e-08
-2.53221e-06
-2.31191e-08
-2.51806e-06
-2.63872e-08
-2.50228e-06
-2.9661e-08
-2.48488e-06
-3.29363e-08
-2.46585e-06
-3.62095e-08
-2.4452e-06
-3.94761e-08
-2.42294e-06
-4.27323e-08
-2.39907e-06
-4.59737e-08
-2.3736e-06
-4.91966e-08
-2.34654e-06
-5.23964e-08
-2.31791e-06
-5.55692e-08
-2.28772e-06
-5.8711e-08
-2.25599e-06
-6.18182e-08
-2.22275e-06
-6.48868e-08
-2.188e-06
-6.79129e-08
-2.15177e-06
-7.08916e-08
-2.1141e-06
-7.38186e-08
-2.075e-06
-7.6689e-08
-2.03451e-06
-7.94991e-08
-1.99265e-06
-8.22447e-08
-1.94946e-06
-8.49227e-08
-1.90498e-06
-8.75297e-08
-1.85924e-06
-9.00639e-08
-1.81228e-06
-9.2523e-08
-1.76414e-06
-9.49058e-08
-1.71486e-06
-9.72101e-08
-1.66447e-06
-9.94346e-08
-1.61303e-06
-1.01569e-07
-1.56058e-06
-1.03604e-07
-1.50716e-06
-1.05548e-07
-1.45283e-06
-1.07403e-07
-1.39762e-06
-1.09161e-07
-1.3416e-06
-1.10816e-07
-1.28481e-06
-1.12369e-07
-1.22731e-06
-1.13819e-07
-1.16915e-06
-1.15164e-07
-1.11038e-06
-1.16405e-07
-1.05104e-06
-1.1754e-07
-9.91209e-07
-1.1857e-07
-9.30921e-07
-1.19495e-07
-8.70234e-07
-1.20315e-07
-8.09199e-07
-1.21031e-07
-7.47868e-07
-1.21645e-07
-6.86291e-07
-1.22157e-07
-6.24519e-07
-1.22571e-07
-5.62599e-07
-1.22887e-07
-5.00579e-07
-1.2311e-07
-4.38504e-07
-1.23241e-07
-3.76419e-07
-1.23284e-07
-3.14365e-07
-1.23242e-07
-2.52383e-07
-1.2312e-07
-1.90512e-07
-1.22919e-07
-1.28789e-07
-1.22643e-07
-6.72475e-08
-1.22294e-07
-5.91833e-09
-1.21879e-07
5.51766e-08
-1.21408e-07
1.16004e-07
-1.2088e-07
1.76581e-07
-1.20269e-07
2.36803e-07
-1.19585e-07
2.96581e-07
-1.18811e-07
3.55961e-07
-1.17962e-07
4.14935e-07
-1.17096e-07
4.73487e-07
-1.16217e-07
5.31591e-07
-1.15296e-07
5.89199e-07
-1.14289e-07
6.46223e-07
-1.13113e-07
7.0251e-07
-1.1163e-07
7.57779e-07
-1.09579e-07
8.11531e-07
-1.06455e-07
8.62767e-07
-1.01125e-07
9.09935e-07
-9.12618e-08
9.49564e-07
-7.09172e-08
-2.2078e-08
9.82677e-07
9.21367e-09
-2.65455e-08
1.50376e-08
-2.96199e-08
1.71079e-08
-2.44688e-08
1.64395e-08
-1.8146e-08
1.37049e-08
-1.17118e-08
9.2936e-09
-5.38439e-09
3.40391e-09
7.38345e-10
-3.88238e-09
6.58735e-09
-1.25534e-08
1.21192e-08
-2.26434e-08
1.73201e-08
-3.42211e-08
2.22041e-08
-4.7374e-08
2.68142e-08
-6.21921e-08
3.12229e-08
-7.87527e-08
3.55238e-08
-9.71181e-08
3.98177e-08
-1.17336e-07
4.41973e-08
-1.39443e-07
4.87358e-08
-1.63463e-07
5.348e-08
-1.89411e-07
5.8449e-08
-2.17277e-07
6.36352e-08
-2.47009e-07
6.90102e-08
-2.78517e-07
7.45283e-08
-3.11679e-07
8.01266e-08
-3.46332e-07
8.57284e-08
-3.82286e-07
9.1247e-08
-4.19332e-07
9.65915e-08
-4.57256e-07
1.01674e-07
-4.95848e-07
1.06417e-07
-5.34917e-07
1.10756e-07
-5.74282e-07
1.14645e-07
-6.13779e-07
1.1805e-07
-6.53274e-07
1.20955e-07
-6.92656e-07
1.23357e-07
-7.31835e-07
1.25263e-07
-7.70743e-07
1.26699e-07
-8.09342e-07
1.27703e-07
-8.47617e-07
1.28323e-07
-8.85567e-07
1.28604e-07
-9.23197e-07
1.28594e-07
-9.60521e-07
1.28339e-07
-9.97555e-07
1.27887e-07
-1.03432e-06
1.27278e-07
-1.07084e-06
1.26553e-07
-1.10712e-06
1.25743e-07
-1.1432e-06
1.2488e-07
-1.17908e-06
1.23989e-07
-1.21477e-06
1.23091e-07
-1.25028e-06
1.22201e-07
-1.28558e-06
1.21329e-07
-1.3207e-06
1.20476e-07
-1.35561e-06
1.19642e-07
-1.39033e-06
1.18826e-07
-1.42484e-06
1.18023e-07
-1.45915e-06
1.17227e-07
-1.49325e-06
1.16434e-07
-1.52713e-06
1.15636e-07
-1.56078e-06
1.14826e-07
-1.59419e-06
1.13998e-07
-1.62735e-06
1.13143e-07
-1.66025e-06
1.12255e-07
-1.69286e-06
1.11326e-07
-1.72517e-06
1.10348e-07
-1.75716e-06
1.09314e-07
-1.7888e-06
1.08219e-07
-1.82008e-06
1.07054e-07
-1.85097e-06
1.05814e-07
-1.88144e-06
1.04493e-07
-1.91146e-06
1.03086e-07
-1.941e-06
1.01588e-07
-1.97004e-06
9.99934e-08
-1.99855e-06
9.82989e-08
-2.02648e-06
9.65005e-08
-2.05381e-06
9.45948e-08
-2.0805e-06
9.25792e-08
-2.10652e-06
9.04512e-08
-2.13183e-06
8.82088e-08
-2.1564e-06
8.58506e-08
-2.18018e-06
8.33754e-08
-2.20316e-06
8.07826e-08
-2.22528e-06
7.80716e-08
-2.24651e-06
7.52428e-08
-2.26682e-06
7.22963e-08
-2.28616e-06
6.92329e-08
-2.30451e-06
6.60536e-08
-2.32183e-06
6.27599e-08
-2.33809e-06
5.93532e-08
-2.35324e-06
5.58356e-08
-2.36726e-06
5.22091e-08
-2.38012e-06
4.84758e-08
-2.39178e-06
4.46381e-08
-2.40222e-06
4.06984e-08
-2.41141e-06
3.66594e-08
-2.41932e-06
3.25244e-08
-2.42594e-06
2.82969e-08
-2.43125e-06
2.39818e-08
-2.43523e-06
1.95848e-08
-2.43787e-06
1.51136e-08
-2.43919e-06
1.05779e-08
-2.43917e-06
5.99185e-09
-2.43783e-06
1.37603e-09
-2.43513e-06
-3.24807e-09
-2.43102e-06
-7.87883e-09
-2.42545e-06
-1.25404e-08
-2.41837e-06
-1.72465e-08
-2.40976e-06
-2.19908e-08
-2.39962e-06
-2.67666e-08
-2.38791e-06
-3.15687e-08
-2.37464e-06
-3.63913e-08
-2.35981e-06
-4.12288e-08
-2.34339e-06
-4.60751e-08
-2.32541e-06
-5.09246e-08
-2.30585e-06
-5.57709e-08
-2.28472e-06
-6.0608e-08
-2.26202e-06
-6.54297e-08
-2.23777e-06
-7.023e-08
-2.21196e-06
-7.50026e-08
-2.18462e-06
-7.97416e-08
-2.15575e-06
-8.44408e-08
-2.12536e-06
-8.90943e-08
-2.09349e-06
-9.36965e-08
-2.06013e-06
-9.82417e-08
-2.02533e-06
-1.02724e-07
-1.98908e-06
-1.07136e-07
-1.95143e-06
-1.11472e-07
-1.9124e-06
-1.15725e-07
-1.87201e-06
-1.19889e-07
-1.8303e-06
-1.23958e-07
-1.78729e-06
-1.27927e-07
-1.74303e-06
-1.31791e-07
-1.69754e-06
-1.35546e-07
-1.65087e-06
-1.39189e-07
-1.60306e-06
-1.42718e-07
-1.55413e-06
-1.46131e-07
-1.50414e-06
-1.49423e-07
-1.45311e-06
-1.52584e-07
-1.40111e-06
-1.55601e-07
-1.34817e-06
-1.58481e-07
-1.29434e-06
-1.61225e-07
-1.23967e-06
-1.63825e-07
-1.18421e-06
-1.66274e-07
-1.128e-06
-1.6857e-07
-1.0711e-06
-1.70712e-07
-1.01356e-06
-1.72699e-07
-9.55434e-07
-1.7453e-07
-8.96769e-07
-1.76203e-07
-8.37617e-07
-1.7772e-07
-7.78032e-07
-1.79079e-07
-7.18064e-07
-1.80282e-07
-6.57766e-07
-1.8133e-07
-5.97186e-07
-1.82224e-07
-5.36376e-07
-1.82968e-07
-4.75384e-07
-1.83564e-07
-4.14259e-07
-1.84015e-07
-3.53045e-07
-1.84325e-07
-2.91788e-07
-1.845e-07
-2.30532e-07
-1.84543e-07
-1.69317e-07
-1.8446e-07
-1.08183e-07
-1.84256e-07
-4.71659e-08
-1.83939e-07
1.37019e-08
-1.83513e-07
7.43854e-08
-1.82981e-07
1.34853e-07
-1.82349e-07
1.9507e-07
-1.81628e-07
2.5501e-07
-1.80823e-07
3.14669e-07
-1.79932e-07
3.74021e-07
-1.7894e-07
4.33038e-07
-1.77831e-07
4.91712e-07
-1.76639e-07
5.50018e-07
-1.75405e-07
6.07929e-07
-1.7413e-07
6.6541e-07
-1.7278e-07
7.22409e-07
-1.71291e-07
7.78843e-07
-1.69549e-07
8.34566e-07
-1.67357e-07
8.89338e-07
-1.64355e-07
9.42757e-07
-1.59876e-07
9.94191e-07
-1.52562e-07
1.04279e-06
-1.39863e-07
1.08803e-06
-1.16155e-07
-6.84746e-08
1.13442e-06
3.64136e-09
-3.01892e-08
2.55698e-09
-2.8538e-08
-1.14849e-09
-2.0765e-08
-6.62185e-09
-1.26738e-08
-1.35197e-08
-4.81506e-09
-2.1677e-08
2.7719e-09
-3.10297e-08
1.00901e-08
-4.15805e-08
1.71373e-08
-5.33768e-08
2.39145e-08
-6.64922e-08
3.04346e-08
-8.10159e-08
3.67268e-08
-9.70406e-08
4.2838e-08
-1.1465e-07
4.88317e-08
-1.33909e-07
5.47813e-08
-1.54853e-07
6.07605e-08
-1.77488e-07
6.68322e-08
-2.01794e-07
7.30399e-08
-2.27716e-07
7.94017e-08
-2.55177e-07
8.59085e-08
-2.84068e-07
9.25252e-08
-3.14253e-07
9.91945e-08
-3.4557e-07
1.05845e-07
-3.77838e-07
1.12393e-07
-4.10865e-07
1.18754e-07
-4.44459e-07
1.2484e-07
-4.78438e-07
1.3057e-07
-5.1264e-07
1.35875e-07
-5.46925e-07
1.407e-07
-5.81176e-07
1.45006e-07
-6.153e-07
1.48768e-07
-6.49229e-07
1.51978e-07
-6.82915e-07
1.5464e-07
-7.16333e-07
1.56774e-07
-7.4948e-07
1.5841e-07
-7.82372e-07
1.59589e-07
-8.15028e-07
1.60359e-07
-8.47474e-07
1.60768e-07
-8.79738e-07
1.60867e-07
-9.11848e-07
1.60703e-07
-9.4383e-07
1.6032e-07
-9.75708e-07
1.59763e-07
-1.0075e-06
1.5907e-07
-1.03922e-06
1.58275e-07
-1.07089e-06
1.57408e-07
-1.1025e-06
1.56494e-07
-1.13407e-06
1.55554e-07
-1.16558e-06
1.54604e-07
-1.19704e-06
1.53656e-07
-1.22843e-06
1.52716e-07
-1.25974e-06
1.51789e-07
-1.29097e-06
1.50872e-07
-1.32211e-06
1.49963e-07
-1.35315e-06
1.49058e-07
-1.38407e-06
1.4815e-07
-1.41487e-06
1.47233e-07
-1.44554e-06
1.463e-07
-1.47605e-06
1.45342e-07
-1.50641e-06
1.4435e-07
-1.53658e-06
1.43316e-07
-1.56656e-06
1.4223e-07
-1.59632e-06
1.41085e-07
-1.62584e-06
1.3987e-07
-1.65511e-06
1.38578e-07
-1.68409e-06
1.37201e-07
-1.71277e-06
1.35729e-07
-1.74111e-06
1.34157e-07
-1.76909e-06
1.32476e-07
-1.79669e-06
1.3068e-07
-1.82387e-06
1.28763e-07
-1.85059e-06
1.2672e-07
-1.87684e-06
1.24544e-07
-1.90257e-06
1.22231e-07
-1.92776e-06
1.19778e-07
-1.95236e-06
1.1718e-07
-1.97634e-06
1.14435e-07
-1.99968e-06
1.11541e-07
-2.02232e-06
1.08494e-07
-2.04424e-06
1.05295e-07
-2.0654e-06
1.01941e-07
-2.08576e-06
9.84336e-08
-2.1053e-06
9.47717e-08
-2.12396e-06
9.09561e-08
-2.14171e-06
8.69878e-08
-2.15853e-06
8.28683e-08
-2.17437e-06
7.85996e-08
-2.1892e-06
7.41838e-08
-2.20299e-06
6.96237e-08
-2.2157e-06
6.49224e-08
-2.22731e-06
6.00831e-08
-2.23778e-06
5.51095e-08
-2.24709e-06
5.00057e-08
-2.25521e-06
4.47761e-08
-2.26211e-06
3.94259e-08
-2.26778e-06
3.39612e-08
-2.27219e-06
2.8389e-08
-2.27532e-06
2.27174e-08
-2.27716e-06
1.6956e-08
-2.2777e-06
1.11157e-08
-2.27692e-06
5.20908e-09
-2.2748e-06
-7.50182e-10
-2.2713e-06
-6.75268e-09
-2.26638e-06
-1.28012e-08
-2.26002e-06
-1.89073e-08
-2.25219e-06
-2.50744e-08
-2.24289e-06
-3.12953e-08
-2.2321e-06
-3.75612e-08
-2.21981e-06
-4.3864e-08
-2.20601e-06
-5.01952e-08
-2.1907e-06