/*--------------------------------*- C++ -*----------------------------------*\
| =========                 |                                                 |
| \\      /  F ield         | OpenFOAM: The Open Source CFD Toolbox           |
|  \\    /   O peration     | Version:  2306                                  |
|   \\  /    A nd           | Website:  www.openfoam.com                      |
|    \\/     M anipulation  |                                                 |
\*---------------------------------------------------------------------------*/
FoamFile
{
    version     2.0;
    format      ascii;
    arch        "LSB;label=32;scalar=64";
    class       volVectorField;
    location    "280";
    object      U;
}
// * * * * * * * * * * * * * * * * * * * * * * * * * * * * * * * * * * * * * //

dimensions      [0 1 -1 0 0 0 0];

internalField   nonuniform List<vector> 
12225
(
(9.84118 -0.956372 0)
(9.59253 -0.887948 0)
(9.31754 -0.594491 0)
(9.0147 -0.37001 0)
(8.72576 -0.22598 0)
(8.46711 -0.137913 0)
(8.23993 -0.0844119 0)
(8.04175 -0.0515915 0)
(7.86968 -0.0313179 0)
(7.72065 -0.0185891 0)
(7.5915 -0.0106484 0)
(7.47917 -0.00570677 0)
(7.38144 -0.00270507 0)
(7.29636 -0.00099332 0)
(7.22224 -0.000109317 0)
(7.16006 -0.000480952 0)
(7.10031 0.00265426 0)
(7.07198 -0.0178499 0)
(10.0722 0.255857 0)
(10.1867 0.418358 0)
(10.2285 0.384145 0)
(10.2296 0.310412 0)
(10.2114 0.245694 0)
(10.1794 0.195454 0)
(10.1334 0.157666 0)
(10.0758 0.129675 0)
(10.0105 0.108862 0)
(9.94087 0.0930989 0)
(9.86926 0.0809282 0)
(9.79744 0.0713159 0)
(9.72649 0.0635221 0)
(9.65755 0.0570707 0)
(9.59102 0.0513196 0)
(9.52784 0.0467306 0)
(9.46854 0.0402499 0)
(9.41528 0.0404049 0)
(10.0032 0.0599587 0)
(10.0309 0.0482996 0)
(10.0614 0.0100095 0)
(10.0898 9.55625e-06 0)
(10.1151 0.00817777 0)
(10.1376 0.0194351 0)
(10.1547 0.0290264 0)
(10.1657 0.0365105 0)
(10.1715 0.0420713 0)
(10.173 0.0459325 0)
(10.1711 0.0483943 0)
(10.1662 0.0497633 0)
(10.1591 0.0502739 0)
(10.1502 0.0500765 0)
(10.1401 0.04921 0)
(10.1291 0.0476762 0)
(10.1183 0.0452117 0)
(10.1062 0.0404453 0)
(9.99715 0.00991907 0)
(10.009 0.0260987 0)
(10.0342 0.0383113 0)
(10.0554 0.0534006 0)
(10.0721 0.0649318 0)
(10.0875 0.0702722 0)
(10.1015 0.0714285 0)
(10.1134 0.0706718 0)
(10.1236 0.0690914 0)
(10.1326 0.0671203 0)
(10.1404 0.0649495 0)
(10.1473 0.0627048 0)
(10.1532 0.0604074 0)
(10.1585 0.0580376 0)
(10.1631 0.0554605 0)
(10.1674 0.0525372 0)
(10.1713 0.0487906 0)
(10.1742 0.0431149 0)
(9.99907 0.00681137 0)
(10.0082 0.0343081 0)
(10.0279 0.0483618 0)
(10.0436 0.0549059 0)
(10.0558 0.0583741 0)
(10.0678 0.0595552 0)
(10.0793 0.0593268 0)
(10.0897 0.0585834 0)
(10.0991 0.0576886 0)
(10.1077 0.0566802 0)
(10.1157 0.0555462 0)
(10.1232 0.054283 0)
(10.1302 0.0528677 0)
(10.1369 0.0512442 0)
(10.1434 0.0492953 0)
(10.1495 0.0468644 0)
(10.1553 0.0436337 0)
(10.1605 0.0392946 0)
(10.0002 0.00924546 0)
(10.008 0.0334149 0)
(10.0236 0.0440843 0)
(10.0369 0.0484137 0)
(10.0478 0.0518755 0)
(10.0585 0.0542731 0)
(10.069 0.0553061 0)
(10.0785 0.0554688 0)
(10.0871 0.0551553 0)
(10.0951 0.0544981 0)
(10.1026 0.0535493 0)
(10.1097 0.0523523 0)
(10.1165 0.0509183 0)
(10.1231 0.0492186 0)
(10.1294 0.0471693 0)
(10.1354 0.044652 0)
(10.1411 0.0415014 0)
(10.1462 0.0375935 0)
(10.0003 0.00912783 0)
(10.007 0.0287631 0)
(10.0201 0.0389032 0)
(10.0322 0.0440394 0)
(10.0425 0.0481427 0)
(10.0525 0.0509461 0)
(10.0622 0.0521918 0)
(10.0711 0.0524262 0)
(10.0793 0.0521139 0)
(10.0869 0.0514306 0)
(10.094 0.0504453 0)
(10.1008 0.0492037 0)
(10.1073 0.0477214 0)
(10.1136 0.0459729 0)
(10.1196 0.0438957 0)
(10.1253 0.0414039 0)
(10.1306 0.0384097 0)
(10.1354 0.0348726 0)
(10.0004 0.00814697 0)
(10.006 0.0247163 0)
(10.0171 0.0348937 0)
(10.0283 0.0405421 0)
(10.0381 0.0446215 0)
(10.0475 0.0473363 0)
(10.0567 0.0486163 0)
(10.0652 0.0489322 0)
(10.073 0.0486975 0)
(10.0804 0.0480793 0)
(10.0873 0.0471457 0)
(10.0939 0.0459391 0)
(10.1002 0.044478 0)
(10.1062 0.0427455 0)
(10.1119 0.0407012 0)
(10.1173 0.0382919 0)
(10.1223 0.0354813 0)
(10.1267 0.0322848 0)
(10.0004 0.0072121 0)
(10.0052 0.0215235 0)
(10.0146 0.0312787 0)
(10.0248 0.0369612 0)
(10.0341 0.0408604 0)
(10.0429 0.0434899 0)
(10.0516 0.0448544 0)
(10.0598 0.0452961 0)
(10.0675 0.0451634 0)
(10.0746 0.0446222 0)
(10.0814 0.0437457 0)
(10.0878 0.0425788 0)
(10.0939 0.0411462 0)
(10.0997 0.0394436 0)
(10.1052 0.0374516 0)
(10.1103 0.0351458 0)
(10.115 0.0325232 0)
(10.1192 0.0296286 0)
(10.0004 0.00637363 0)
(10.0045 0.0187505 0)
(10.0125 0.0277573 0)
(10.0216 0.0333002 0)
(10.0303 0.0370491 0)
(10.0387 0.0396033 0)
(10.0469 0.0410209 0)
(10.0548 0.0415529 0)
(10.0622 0.0414959 0)
(10.0692 0.0410156 0)
(10.0758 0.0401898 0)
(10.082 0.0390662 0)
(10.088 0.0376747 0)
(10.0936 0.0360229 0)
(10.0989 0.0341085 0)
(10.1038 0.0319296 0)
(10.1083 0.0295018 0)
(10.1123 0.0268836 0)
(10.0004 0.00558427 0)
(10.0039 0.0162539 0)
(10.0107 0.0243955 0)
(10.0189 0.0296904 0)
(10.0269 0.0332689 0)
(10.0348 0.0357057 0)
(10.0426 0.0371145 0)
(10.0501 0.0376915 0)
(10.0573 0.0376847 0)
(10.064 0.037252 0)
(10.0704 0.0364737 0)
(10.0765 0.0353989 0)
(10.0823 0.0340614 0)
(10.0877 0.0324789 0)
(10.0928 0.0306622 0)
(10.0975 0.0286247 0)
(10.1018 0.0263926 0)
(10.1057 0.0240283 0)
(10.0003 0.00487995 0)
(10.0034 0.0141542 0)
(10.0093 0.0214713 0)
(10.0167 0.0264438 0)
(10.0242 0.0298214 0)
(10.0316 0.0321137 0)
(10.039 0.0334711 0)
(10.0461 0.0340566 0)
(10.053 0.0340762 0)
(10.0595 0.033676 0)
(10.0657 0.0329366 0)
(10.0716 0.0319081 0)
(10.0772 0.0306276 0)
(10.0825 0.0291198 0)
(10.0874 0.0274045 0)
(10.0919 0.0255039 0)
(10.0961 0.0234485 0)
(10.0999 0.0213006 0)
(10.0003 0.00421941 0)
(10.003 0.0122292 0)
(10.0082 0.0187094 0)
(10.0148 0.0232778 0)
(10.0217 0.0264152 0)
(10.0287 0.0285397 0)
(10.0357 0.0298158 0)
(10.0425 0.0303837 0)
(10.0491 0.0304136 0)
(10.0554 0.0300366 0)
(10.0614 0.0293318 0)
(10.0671 0.0283502 0)
(10.0725 0.027131 0)
(10.0775 0.0257038 0)
(10.0823 0.0240945 0)
(10.0866 0.0223307 0)
(10.0907 0.0204438 0)
(10.0943 0.0184951 0)
(10.0003 0.00353126 0)
(10.0026 0.0102225 0)
(10.0071 0.0157462 0)
(10.0129 0.019772 0)
(10.0193 0.0225749 0)
(10.0258 0.0244673 0)
(10.0323 0.0256093 0)
(10.0387 0.0261216 0)
(10.045 0.0261391 0)
(10.051 0.0257743 0)
(10.0567 0.0251021 0)
(10.0622 0.0241731 0)
(10.0674 0.0230273 0)
(10.0723 0.0216973 0)
(10.0768 0.0202126 0)
(10.081 0.0186037 0)
(10.0849 0.0169005 0)
(10.0884 0.0151607 0)
(10.0002 0.00281173 0)
(10.0022 0.00813023 0)
(10.0061 0.0125919 0)
(10.0112 0.0159345 0)
(10.0169 0.0182904 0)
(10.0229 0.0198704 0)
(10.0289 0.0208131 0)
(10.035 0.0212192 0)
(10.0409 0.0211918 0)
(10.0466 0.0208221 0)
(10.0521 0.0201768 0)
(10.0573 0.0193042 0)
(10.0622 0.0182426 0)
(10.0669 0.0170253 0)
(10.0712 0.0156825 0)
(10.0752 0.014244 0)
(10.0789 0.012737 0)
(10.0824 0.0112131 0)
(10.0002 0.00206113 0)
(10.0019 0.00595537 0)
(10.0052 0.0092573 0)
(10.0097 0.011774 0)
(10.0148 0.0135543 0)
(10.0202 0.0147247 0)
(10.0258 0.0153887 0)
(10.0314 0.0156249 0)
(10.037 0.0155081 0)
(10.0424 0.0151069 0)
(10.0475 0.0144763 0)
(10.0525 0.0136583 0)
(10.0572 0.0126874 0)
(10.0616 0.0115938 0)
(10.0657 0.0104053 0)
(10.0696 0.00914844 0)
(10.0732 0.00784549 0)
(10.0765 0.0065408 0)
(10.0002 0.00127797 0)
(10.0016 0.0036862 0)
(10.0045 0.00572834 0)
(10.0084 0.00727763 0)
(10.013 0.00834375 0)
(10.018 0.00899146 0)
(10.0231 0.00928501 0)
(10.0283 0.00927665 0)
(10.0335 0.00901526 0)
(10.0386 0.00854686 0)
(10.0435 0.00791068 0)
(10.0482 0.00713863 0)
(10.0526 0.00625774 0)
(10.0568 0.00529205 0)
(10.0608 0.00426347 0)
(10.0645 0.00319287 0)
(10.0679 0.00209637 0)
(10.0712 0.00101004 0)
(10.0002 0.000446824 0)
(10.0014 0.00127207 0)
(10.004 0.00193279 0)
(10.0075 0.00236484 0)
(10.0117 0.00256739 0)
(10.0163 0.00256391 0)
(10.0211 0.00238057 0)
(10.026 0.00204113 0)
(10.0309 0.00156921 0)
(10.0357 0.000987669 0)
(10.0404 0.000316774 0)
(10.0448 -0.000425949 0)
(10.0491 -0.00122481 0)
(10.0531 -0.00206525 0)
(10.0569 -0.00293372 0)
(10.0605 -0.00381708 0)
(10.0639 -0.00470606 0)
(10.067 -0.00557344 0)
(10.0001 -0.000475197 0)
(10.0014 -0.00140977 0)
(10.0038 -0.00230691 0)
(10.0071 -0.003165 0)
(10.0112 -0.00398031 0)
(10.0156 -0.00476358 0)
(10.0202 -0.00552884 0)
(10.025 -0.00628361 0)
(10.0297 -0.00703046 0)
(10.0343 -0.00777131 0)
(10.0389 -0.00850796 0)
(10.0432 -0.00924104 0)
(10.0473 -0.00996974 0)
(10.0513 -0.0106922 0)
(10.055 -0.0114058 0)
(10.0585 -0.012107 0)
(10.0618 -0.0127944 0)
(10.0649 -0.0134508 0)
(10.0002 -0.00134837 0)
(10.0014 -0.00395906 0)
(10.004 -0.00634997 0)
(10.0075 -0.00843751 0)
(10.0117 -0.0102093 0)
(10.0163 -0.0117198 0)
(10.021 -0.0130251 0)
(10.0259 -0.0141597 0)
(10.0306 -0.0151518 0)
(10.0353 -0.0160307 0)
(10.0399 -0.0168213 0)
(10.0443 -0.017542 0)
(10.0484 -0.0182055 0)
(10.0524 -0.0188219 0)
(10.0561 -0.0193984 0)
(10.0596 -0.0199401 0)
(10.0629 -0.0204518 0)
(10.066 -0.0209244 0)
(10.0002 -0.00208849 0)
(10.0016 -0.00615477 0)
(10.0043 -0.00984902 0)
(10.0083 -0.012944 0)
(10.0129 -0.0154469 0)
(10.0177 -0.0175074 0)
(10.0227 -0.0192239 0)
(10.0278 -0.0206362 0)
(10.0328 -0.0217895 0)
(10.0376 -0.0227412 0)
(10.0423 -0.0235406 0)
(10.0467 -0.0242222 0)
(10.051 -0.0248111 0)
(10.055 -0.0253275 0)
(10.0588 -0.0257865 0)
(10.0623 -0.0261991 0)
(10.0656 -0.0265746 0)
(10.0688 -0.0269097 0)
(10.0002 -0.0027726 0)
(10.0017 -0.0082883 0)
(10.0049 -0.0133161 0)
(10.0094 -0.0173278 0)
(10.0145 -0.0204048 0)
(10.0198 -0.0228788 0)
(10.0251 -0.0249033 0)
(10.0305 -0.0265184 0)
(10.0357 -0.0277849 0)
(10.0408 -0.0287809 0)
(10.0456 -0.0295688 0)
(10.0502 -0.0301934 0)
(10.0546 -0.0306912 0)
(10.0586 -0.0310927 0)
(10.0625 -0.0314215 0)
(10.0661 -0.0316944 0)
(10.0695 -0.031924 0)
(10.0726 -0.0321104 0)
(10.0001 -0.0033814 0)
(10.0017 -0.0103974 0)
(10.0055 -0.016768 0)
(10.0109 -0.0216087 0)
(10.0166 -0.0252297 0)
(10.0223 -0.0280865 0)
(10.028 -0.0303067 0)
(10.0337 -0.031975 0)
(10.0393 -0.0332349 0)
(10.0445 -0.0342047 0)
(10.0496 -0.0349495 0)
(10.0543 -0.0355136 0)
(10.0588 -0.0359375 0)
(10.063 -0.0362567 0)
(10.0669 -0.0364974 0)
(10.0706 -0.0366784 0)
(10.074 -0.0368144 0)
(10.0772 -0.036911 0)
(10.0001 -0.00387041 0)
(10.0016 -0.0128895 0)
(10.0061 -0.0203168 0)
(10.0124 -0.0253774 0)
(10.0188 -0.0294328 0)
(10.025 -0.0328931 0)
(10.0312 -0.0354905 0)
(10.0373 -0.037255 0)
(10.0431 -0.0384521 0)
(10.0486 -0.0392827 0)
(10.0538 -0.0398445 0)
(10.0587 -0.040203 0)
(10.0633 -0.0404165 0)
(10.0676 -0.040533 0)
(10.0716 -0.0405851 0)
(10.0754 -0.0405945 0)
(10.0789 -0.0405743 0)
(10.0821 -0.0405214 0)
(9.9998 -0.00354815 0)
(10.0012 -0.0165487 0)
(10.007 -0.025518 0)
(10.0141 -0.0296899 0)
(10.0207 -0.033009 0)
(10.0273 -0.0364614 0)
(10.0342 -0.0393905 0)
(10.0409 -0.0415643 0)
(10.0473 -0.043142 0)
(10.0532 -0.0442706 0)
(10.0588 -0.0450307 0)
(10.064 -0.0454967 0)
(10.0689 -0.0457453 0)
(10.0734 -0.0458413 0)
(10.0776 -0.0458321 0)
(10.0815 -0.0457511 0)
(10.0852 -0.0456241 0)
(10.0886 -0.0454608 0)
(9.99829 9.53971e-07 0)
(9.99797 -0.0176182 0)
(10.0068 -0.0315008 0)
(10.0162 -0.0375842 0)
(10.0234 -0.0402795 0)
(10.0303 -0.0418285 0)
(10.0379 -0.042782 0)
(10.0455 -0.043474 0)
(10.0527 -0.0440714 0)
(10.0594 -0.0445819 0)
(10.0657 -0.0449724 0)
(10.0716 -0.0452544 0)
(10.0771 -0.0454501 0)
(10.0821 -0.0455874 0)
(10.0868 -0.0456804 0)
(10.0911 -0.0457456 0)
(10.0951 -0.045788 0)
(10.0988 -0.0457757 0)
(9.99413 0.00277699 0)
(9.98996 -0.00759968 0)
(10.0032 -0.022858 0)
(10.0185 -0.0396775 0)
(10.0302 -0.0530672 0)
(10.0403 -0.0608368 0)
(10.0501 -0.0643712 0)
(10.0593 -0.065617 0)
(10.0678 -0.0657024 0)
(10.0756 -0.0650748 0)
(10.083 -0.064017 0)
(10.0897 -0.0627187 0)
(10.0959 -0.0613427 0)
(10.1016 -0.0599697 0)
(10.1067 -0.0586646 0)
(10.1114 -0.0574567 0)
(10.1157 -0.0563718 0)
(10.1196 -0.0553623 0)
(9.9942 -0.030507 0)
(9.99526 -0.0134564 0)
(10.0086 0.0215205 0)
(10.0272 0.0320195 0)
(10.047 0.024146 0)
(10.0668 0.0116051 0)
(10.085 -0.000111638 0)
(10.1007 -0.010326 0)
(10.1139 -0.0189644 0)
(10.1251 -0.0260356 0)
(10.1343 -0.0316344 0)
(10.1418 -0.0360038 0)
(10.1476 -0.039375 0)
(10.152 -0.0419655 0)
(10.155 -0.0439387 0)
(10.1569 -0.0454639 0)
(10.1579 -0.0466702 0)
(10.1579 -0.0477031 0)
(10.0368 -0.209412 0)
(10.1083 -0.365899 0)
(10.1423 -0.352746 0)
(10.1567 -0.298034 0)
(10.1697 -0.247622 0)
(10.182 -0.20679 0)
(10.1884 -0.174352 0)
(10.1867 -0.148988 0)
(10.1774 -0.129269 0)
(10.1619 -0.113744 0)
(10.1414 -0.101345 0)
(10.1169 -0.0913144 0)
(10.0894 -0.0831193 0)
(10.0598 -0.0763545 0)
(10.0288 -0.0707393 0)
(9.99693 -0.0660938 0)
(9.96472 -0.0622676 0)
(9.93284 -0.059562 0)
(9.92866 0.765531 0)
(9.83924 0.742069 0)
(9.70534 0.524432 0)
(9.52636 0.348784 0)
(9.33186 0.227692 0)
(9.14063 0.146988 0)
(8.95883 0.0935851 0)
(8.78893 0.0579916 0)
(8.63234 0.0341271 0)
(8.48968 0.0181106 0)
(8.36032 0.00744644 0)
(8.24346 0.000468927 0)
(8.13793 -0.00407835 0)
(8.04264 -0.00693135 0)
(7.95651 -0.00860865 0)
(7.87854 -0.00954595 0)
(7.80737 -0.010027 0)
(7.74266 -0.0106374 0)
(0.00231439 -0.00410218 -6.62406e-19)
(0.0104745 -0.0113661 6.07362e-19)
(0.0217057 -0.0160294 -3.95767e-19)
(0.034015 -0.0174685 -1.1827e-19)
(0.0452441 -0.0163573 1.73958e-19)
(0.0544348 -0.0137474 -4.02339e-20)
(0.0612455 -0.0104852 -3.62323e-20)
(0.0656246 -0.00709372 1.58287e-19)
(0.0677192 -0.00386504 -8.88849e-20)
(0.0676235 -0.000999944 3.0091e-20)
(0.0656589 0.00133603 1.2664e-20)
(0.062255 0.00309547 -1.67347e-19)
(0.0577074 0.00436956 2.73913e-19)
(0.0522364 0.00531829 3.17323e-19)
(0.0459775 0.00610755 3.01852e-20)
(0.0389754 0.00687758 1.37745e-19)
(0.0312048 0.00773263 5.77262e-20)
(0.0225981 0.00873534 1.05326e-19)
(0.0130585 0.00988136 1.64052e-19)
(0.00245997 0.0110569 1.79644e-20)
(-0.00931745 0.012095 -5.6301e-20)
(-0.0224447 0.0130395 4.09418e-19)
(-0.0370919 0.0140486 -4.57101e-20)
(-0.053401 0.0152028 3.23974e-19)
(-0.0715169 0.0165352 -5.8718e-20)
(-0.0915726 0.018059 1.94709e-19)
(-0.113679 0.0197717 8.53226e-20)
(-0.137916 0.021651 4.81287e-20)
(-0.164329 0.0236487 -1.65651e-19)
(-0.192907 0.0256884 -2.59438e-20)
(-0.223577 0.0276883 -1.54119e-19)
(-0.256236 0.0295969 8.36231e-20)
(-0.290741 0.0313721 5.53708e-20)
(-0.326927 0.0329777 -6.30413e-20)
(-0.364608 0.034384 -8.8169e-20)
(-0.403587 0.0355717 -5.41231e-21)
(-0.44366 0.0365316 2.82173e-20)
(-0.484624 0.0372637 6.43882e-20)
(-0.526286 0.0377759 4.1936e-20)
(-0.568469 0.0380822 9.08868e-20)
(-0.611008 0.0382005 3.38279e-20)
(-0.653758 0.0381509 8.40909e-21)
(-0.696589 0.0379553 -1.06498e-19)
(-0.739396 0.0376374 -2.0884e-20)
(-0.7821 0.0372252 4.10963e-20)
(-0.824642 0.0367537 2.02365e-21)
(-0.866964 0.0362636 9.01682e-20)
(-0.909008 0.0357919 2.78962e-20)
(-0.950842 0.0353506 1.08852e-20)
(-0.992479 0.034928 -8.61153e-20)
(-1.03392 0.034521 6.77319e-20)
(-1.07518 0.0341274 6.01247e-21)
(-1.11627 0.0337461 8.19801e-20)
(-1.15719 0.0333757 6.32617e-20)
(-1.19794 0.0330147 2.42038e-20)
(-1.23854 0.0326616 5.5731e-20)
(-1.27897 0.0323146 7.46513e-20)
(-1.31925 0.0319716 -8.11424e-20)
(-1.35937 0.0316305 3.23025e-20)
(-1.39931 0.031289 3.66499e-20)
(-1.43908 0.0309449 -8.76197e-20)
(-1.47867 0.0305958 -5.73391e-20)
(-1.51805 0.0302396 4.47073e-20)
(-1.55722 0.0298742 5.35977e-20)
(-1.59614 0.0294974 1.50405e-20)
(-1.63481 0.0291075 -5.78659e-20)
(-1.67319 0.0287027 6.37162e-21)
(-1.71126 0.0282814 3.01836e-21)
(-1.749 0.0278423 1.50703e-20)
(-1.78636 0.027384 7.35966e-20)
(-1.82331 0.0269056 -3.662e-21)
(-1.85983 0.0264061 -5.30972e-20)
(-1.89587 0.0258847 5.71037e-20)
(-1.93139 0.0253408 2.07665e-20)
(-1.96636 0.024774 -3.35233e-20)
(-2.00074 0.024184 2.7793e-20)
(-2.03448 0.0235709 -4.26637e-21)
(-2.06754 0.0229344 5.33139e-20)
(-2.09988 0.0222748 2.44928e-20)
(-2.13146 0.0215922 -3.60682e-20)
(-2.16223 0.0208871 -1.02736e-20)
(-2.19215 0.0201596 2.02684e-21)
(-2.22117 0.0194105 4.01455e-20)
(-2.24925 0.01864 4.96809e-20)
(-2.27635 0.0178489 4.35897e-20)
(-2.30242 0.0170377 -4.40858e-20)
(-2.32742 0.0162071 9.34425e-20)
(-2.35131 0.0153572 -3.69574e-21)
(-2.37404 0.0144884 6.6455e-20)
(-2.39557 0.0136002 -9.37428e-20)
(-2.41586 0.0126918 -5.00598e-20)
(-2.43488 0.0117617 4.18896e-20)
(-2.45256 0.0108073 6.0619e-20)
(-2.46887 0.00982478 -9.14954e-21)
(-2.48377 0.00880803 -5.63829e-20)
(-2.49718 0.00774908 -5.56808e-20)
(-2.50906 0.00663779 5.67879e-20)
(-2.51934 0.00546373 -3.04094e-20)
(-2.52793 0.00422473 -7.20801e-20)
(-2.53476 0.00294549 -3.12042e-20)
(-2.53972 0.00169321 7.64946e-20)
(-2.54269 0.000555677 3.81578e-20)
(-2.54377 -0.000425923 5.66239e-20)
(-2.54333 -0.00131803 -3.436e-20)
(-2.54133 -0.00219033 1.08571e-20)
(-2.5378 -0.00305305 3.73937e-21)
(-2.53271 -0.00391133 -6.79268e-21)
(-2.52607 -0.00476576 -1.45702e-20)
(-2.51786 -0.00561596 -2.16435e-20)
(-2.50808 -0.0064616 -3.47934e-20)
(-2.49671 -0.00730167 -4.70497e-20)
(-2.48376 -0.00813576 2.45522e-20)
(-2.46922 -0.00896276 -3.37309e-20)
(-2.45309 -0.00978232 -3.24229e-20)
(-2.43537 -0.0105933 5.60463e-20)
(-2.41606 -0.0113955 -3.24136e-21)
(-2.39517 -0.0121878 -3.43665e-20)
(-2.3727 -0.0129699 -3.48827e-20)
(-2.34866 -0.0137409 3.12473e-20)
(-2.32306 -0.0145007 2.25927e-21)
(-2.29592 -0.0152484 8.72433e-21)
(-2.26725 -0.0159837 -5.45926e-21)
(-2.23706 -0.0167054 -1.51259e-20)
(-2.20538 -0.0174132 1.19966e-20)
(-2.17221 -0.018106 -9.79107e-21)
(-2.13759 -0.018784 8.01944e-21)
(-2.10153 -0.0194464 9.54737e-21)
(-2.06407 -0.0200936 -2.83939e-21)
(-2.02523 -0.0207251 6.05427e-21)
(-1.98504 -0.021342 -3.40039e-21)
(-1.94354 -0.021944 2.52492e-21)
(-1.90074 -0.0225314 3.9192e-22)
(-1.85668 -0.0231018 1.41367e-20)
(-1.8114 -0.0236561 -6.22325e-21)
(-1.76494 -0.0241933 2.40754e-21)
(-1.71733 -0.0247145 -1.86091e-20)
(-1.66861 -0.0252224 -3.37477e-20)
(-1.61882 -0.0257142 3.89845e-20)
(-1.56802 -0.0261884 1.93458e-20)
(-1.51623 -0.026647 -5.04137e-21)
(-1.46351 -0.0270891 9.90422e-20)
(-1.4099 -0.0275156 8.97784e-20)
(-1.35545 -0.0279265 -4.84346e-20)
(-1.30021 -0.0283222 -5.21179e-20)
(-1.24421 -0.028703 -9.29232e-20)
(-1.18752 -0.0290692 -1.34863e-19)
(-1.13018 -0.0294215 -1.01383e-19)
(-1.07223 -0.0297603 -1.63709e-19)
(-1.01373 -0.0300862 8.07905e-20)
(-0.954717 -0.0303999 7.5085e-20)
(-0.895244 -0.0307022 1.29488e-19)
(-0.835354 -0.0309939 9.62114e-20)
(-0.775095 -0.0312761 2.73553e-19)
(-0.71451 -0.0315497 1.85374e-20)
(-0.653643 -0.0318159 1.19042e-20)
(-0.592535 -0.0320758 -2.07993e-19)
(-0.531226 -0.032331 3.30223e-19)
(-0.469757 -0.0325826 -1.96955e-19)
(-0.408163 -0.0328317 2.75026e-20)
(-0.346481 -0.0330788 9.99681e-20)
(-0.284747 -0.0333248 3.66717e-20)
(-0.222999 -0.0335727 9.39142e-20)
(-0.161267 -0.0338426 4.4726e-19)
(-0.0995843 -0.0341336 2.21842e-19)
(-0.0380257 -0.0343658 1.05463e-19)
(0.0233972 -0.0340494 1.43907e-19)
(0.0846874 -0.0331596 3.73407e-19)
(0.145801 -0.0322165 -1.49854e-20)
(0.206691 -0.0313229 3.62258e-19)
(0.267335 -0.0304764 4.80115e-19)
(0.327727 -0.029665 4.29163e-19)
(0.387842 -0.0288735 -1.43569e-20)
(0.447624 -0.0280811 3.41491e-20)
(0.506951 -0.0272557 -7.41682e-20)
(0.565638 -0.0263398 -8.54046e-19)
(0.623111 -0.0252236 3.88107e-19)
(0.679089 -0.0236486 2.62599e-19)
(0.729012 -0.0209781 -4.92431e-19)
(0.778339 -0.0158983 -4.61009e-19)
(0.777943 0.000799662 6.86157e-19)
(0.00527363 -0.0223647 1.4881e-18)
(0.0164857 -0.0359788 -6.37101e-19)
(0.0251753 -0.0370674 -1.81499e-19)
(0.0312064 -0.0331947 3.48769e-19)
(0.0349804 -0.0271252 6.61336e-20)
(0.0366938 -0.0201345 3.94003e-20)
(0.0365781 -0.0129877 -3.71502e-20)
(0.0348174 -0.00614887 -1.85961e-19)
(0.0315342 0.000116717 -1.31139e-20)
(0.0268658 0.00564116 -1.98425e-19)
(0.0208246 0.0103359 1.20112e-20)
(0.0133745 0.0142408 -3.3195e-21)
(0.00450672 0.0175154 8.23988e-20)
(-0.00579264 0.0203714 1.19388e-20)
(-0.0175449 0.0230303 -2.64398e-20)
(-0.0307833 0.0256846 -2.16346e-19)
(-0.0455607 0.0284756 -4.50027e-20)
(-0.0619557 0.0314916 1.87441e-19)
(-0.0800734 0.0347731 -2.07982e-19)
(-0.100014 0.0383336 5.54809e-20)
(-0.121831 0.042167 4.79445e-21)
(-0.145556 0.0462673 9.75004e-20)
(-0.171241 0.050635 1.07204e-19)
(-0.198927 0.0552466 8.60399e-20)
(-0.228599 0.0600419 1.05525e-19)
(-0.260196 0.0649299 -5.64208e-20)
(-0.29361 0.0697998 1.31765e-20)
(-0.328692 0.0745364 1.5581e-20)
(-0.36525 0.0790399 -5.60384e-20)
(-0.403076 0.083234 -3.68332e-20)
(-0.441976 0.087043 -5.65067e-20)
(-0.481755 0.0903967 -1.67478e-20)
(-0.522214 0.0932545 -1.19807e-19)
(-0.563161 0.0956001 4.75297e-20)
(-0.604421 0.0974334 -6.57817e-20)
(-0.645831 0.0987569 7.59627e-20)
(-0.687251 0.0995954 -7.03375e-20)
(-0.728567 0.0999928 1.89287e-20)
(-0.769687 0.0999988 4.67259e-20)
(-0.810543 0.0996665 -3.56003e-20)
(-0.851088 0.0990492 2.90369e-20)
(-0.89129 0.0981989 -1.16246e-20)
(-0.931134 0.0971642 -4.40983e-20)
(-0.970619 0.0959893 -1.27549e-19)
(-1.00976 0.0947149 -8.97108e-20)
(-1.04856 0.0933819 1.04474e-21)
(-1.08706 0.0920334 -1.08957e-19)
(-1.12526 0.090709 -2.94095e-20)
(-1.16317 0.0894277 1.03083e-19)
(-1.20079 0.0881878 1.56379e-19)
(-1.23813 0.0869852 3.67445e-20)
(-1.27519 0.0858165 -1.58748e-20)
(-1.31199 0.0846779 -1.66537e-20)
(-1.34854 0.0835651 -5.31577e-20)
(-1.38483 0.0824736 -4.07521e-20)
(-1.42086 0.0813987 -1.06549e-19)
(-1.45665 0.0803354 -1.25079e-19)
(-1.49217 0.0792786 -2.76921e-20)
(-1.52744 0.0782232 1.84437e-20)
(-1.56243 0.077164 -9.39968e-20)
(-1.59714 0.0760961 7.19824e-20)
(-1.63155 0.0750146 -3.06152e-20)
(-1.66565 0.0739149 -1.23031e-19)
(-1.69942 0.0727926 9.29829e-21)
(-1.73285 0.071644 8.86904e-20)
(-1.76589 0.0704651 -3.39736e-20)
(-1.79855 0.069253 3.75229e-21)
(-1.83078 0.0680046 -7.87302e-20)
(-1.86257 0.0667176 2.70431e-20)
(-1.89388 0.0653896 -4.61835e-20)
(-1.92468 0.0640191 8.27681e-22)
(-1.95495 0.0626045 -5.66567e-20)
(-1.98465 0.0611448 1.76977e-21)
(-2.01376 0.0596392 -3.35184e-20)
(-2.04223 0.0580874 4.43134e-20)
(-2.07004 0.0564891 -7.62884e-20)
(-2.09715 0.0548447 9.91256e-21)
(-2.12353 0.0531547 -7.67605e-20)
(-2.14914 0.0514197 2.99301e-21)
(-2.17395 0.0496406 6.03108e-20)
(-2.19791 0.0478186 1.18086e-20)
(-2.22101 0.0459549 -3.51963e-20)
(-2.24319 0.044051 -5.25435e-20)
(-2.26444 0.0421083 2.99844e-20)
(-2.28471 0.0401288 8.43653e-20)
(-2.30396 0.0381139 -2.66038e-20)
(-2.32217 0.0360658 -9.46197e-22)
(-2.3393 0.0339862 -2.22859e-21)
(-2.35532 0.0318767 5.32883e-20)
(-2.37019 0.0297389 1.86436e-19)
(-2.38389 0.0275736 4.04549e-20)
(-2.39638 0.0253818 7.55059e-20)
(-2.40764 0.0231644 -1.63156e-19)
(-2.41763 0.0209213 -7.81186e-20)
(-2.42634 0.0186522 5.0614e-20)
(-2.43374 0.0163564 1.02443e-19)
(-2.43982 0.0140317 -5.60299e-20)
(-2.44459 0.0116734 -2.26549e-20)
(-2.44804 0.00927431 -3.88173e-20)
(-2.45023 0.00683804 5.60534e-20)
(-2.45124 0.00440314 -7.73295e-20)
(-2.45118 0.00204846 -5.77211e-20)
(-2.45001 -0.00016694 -3.69133e-20)
(-2.4474 -0.00228567 1.21014e-19)
(-2.44332 -0.00436738 -1.35289e-20)
(-2.43774 -0.00642311 8.37935e-21)
(-2.43064 -0.0084585 4.31918e-20)
(-2.42201 -0.0104738 9.20113e-20)
(-2.41183 -0.0124675 -1.24348e-20)
(-2.4001 -0.014438 -3.44718e-20)
(-2.3868 -0.016383 2.62993e-21)
(-2.37195 -0.0183008 -6.16974e-20)
(-2.35552 -0.0201888 6.57071e-20)
(-2.33752 -0.0220454 2.4106e-20)
(-2.31796 -0.0238683 1.87282e-20)
(-2.29682 -0.0256559 4.51319e-20)
(-2.27413 -0.0274061 5.27062e-20)
(-2.24987 -0.0291172 -2.68786e-20)
(-2.22407 -0.0307874 1.69094e-20)
(-2.19673 -0.0324156 2.33866e-20)
(-2.16787 -0.0340002 2.70721e-20)
(-2.13749 -0.0355399 -2.97965e-21)
(-2.10562 -0.0370325 -1.16969e-21)
(-2.07226 -0.0384766 -1.8253e-20)
(-2.03745 -0.03987 -1.56564e-20)
(-2.0012 -0.041212 -1.49331e-20)
(-1.96353 -0.042501 1.30147e-20)
(-1.92447 -0.0437366 -1.57961e-21)
(-1.88405 -0.0449181 -4.73859e-21)
(-1.8423 -0.0460459 -8.7112e-22)
(-1.79924 -0.0471196 -8.87227e-22)
(-1.75491 -0.04814 1.56453e-21)
(-1.70934 -0.049107 1.97401e-21)
(-1.66256 -0.0500216 -2.54809e-21)
(-1.61461 -0.0508781 -3.54898e-21)
(-1.56554 -0.0516719 -4.63612e-21)
(-1.51536 -0.0524095 9.08059e-21)
(-1.46414 -0.0530957 -5.70173e-20)
(-1.4119 -0.0537262 6.81814e-22)
(-1.3587 -0.0542988 4.63738e-20)
(-1.30458 -0.0548147 -2.93426e-20)
(-1.24958 -0.0552752 3.83847e-20)
(-1.19375 -0.055681 1.70017e-20)
(-1.13713 -0.0560331 -3.389e-20)
(-1.07979 -0.0563324 -1.07778e-20)
(-1.02175 -0.0565801 -5.40514e-20)
(-0.963077 -0.0567776 -3.33408e-20)
(-0.90381 -0.0569263 7.17847e-20)
(-0.843998 -0.0570276 1.15345e-19)
(-0.78369 -0.0570833 -1.57903e-19)
(-0.722933 -0.0570953 4.81555e-20)
(-0.661772 -0.0570657 9.46236e-21)
(-0.600254 -0.0569965 -2.66104e-19)
(-0.538423 -0.0568901 6.53037e-21)
(-0.476323 -0.0567486 4.11162e-21)
(-0.413995 -0.0565749 -8.61862e-20)
(-0.35148 -0.0563711 1.09337e-19)
(-0.288817 -0.0561399 1.54614e-19)
(-0.226044 -0.0558833 1.61258e-19)
(-0.163195 -0.0556025 1.43695e-19)
(-0.100304 -0.0552979 -2.14512e-19)
(-0.0374098 -0.0549716 2.74565e-20)
(0.0254747 -0.0546236 -5.88491e-20)
(0.088325 -0.0542534 1.55657e-19)
(0.151135 -0.0538537 -4.65614e-20)
(0.213859 -0.0532731 1.85885e-19)
(0.276383 -0.0524745 -1.82978e-19)
(0.338698 -0.051622 -2.80799e-19)
(0.400831 -0.0507812 -4.24675e-19)
(0.462771 -0.0499583 -1.98726e-19)
(0.524499 -0.0491416 -8.92207e-20)
(0.585979 -0.0483103 4.24736e-20)
(0.647149 -0.0474307 2.57351e-20)
(0.707884 -0.0464468 -2.97998e-19)
(0.767996 -0.0452515 -2.7629e-19)
(0.827009 -0.0436438 3.81259e-19)
(0.884551 -0.0411274 4.65382e-19)
(0.937834 -0.0367643 4.36104e-19)
(0.989936 -0.0275559 2.19662e-19)
(1.01932 -0.00515124 -4.71616e-19)
(0.00487936 -0.0437873 1.62032e-19)
(0.0118229 -0.0536769 7.43489e-19)
(0.0148452 -0.0466274 4.76526e-19)
(0.0152534 -0.0365525 -3.23907e-19)
(0.0137178 -0.0259929 7.80223e-20)
(0.0105362 -0.0155755 -4.83851e-20)
(0.00594998 -0.00559533 -2.47065e-20)
(8.8904e-05 0.0037592 2.19186e-19)
(-0.00700215 0.0123778 1.89018e-19)
(-0.0153389 0.0202283 1.67571e-19)
(-0.0249726 0.0273379 7.88004e-20)
(-0.0359783 0.0337866 7.70501e-20)
(-0.0484391 0.0397115 -2.4913e-19)
(-0.0624331 0.0452929 -1.54692e-19)
(-0.0780252 0.0507249 5.48343e-20)
(-0.0952662 0.0561856 -1.15526e-19)
(-0.114195 0.0618155 1.09484e-19)
(-0.134842 0.0677076 1.53932e-20)
(-0.157229 0.0739069 1.487e-19)
(-0.181366 0.0804188 1.24588e-19)
(-0.207231 0.0872294 -1.12399e-19)
(-0.23476 0.0942919 -2.85111e-19)
(-0.263861 0.101521 -4.79524e-20)
(-0.294408 0.108808 -2.85855e-19)
(-0.326245 0.116023 5.89448e-20)
(-0.359193 0.123027 8.51517e-20)
(-0.393061 0.129679 -3.15076e-20)
(-0.427657 0.13585 1.00235e-19)
(-0.4628 0.141429 5.00952e-20)
(-0.498327 0.146336 1.03178e-19)
(-0.534083 0.15052 -4.82783e-20)
(-0.569932 0.153952 -2.89695e-20)
(-0.605765 0.156623 1.38645e-20)
(-0.641496 0.158546 -1.64095e-20)
(-0.677049 0.159758 -2.3791e-20)
(-0.712375 0.160319 -1.53908e-21)
(-0.747455 0.160298 -8.34525e-20)
(-0.782285 0.159766 2.96272e-20)
(-0.816865 0.158801 -7.26454e-20)
(-0.851206 0.157479 -2.36552e-20)
(-0.88532 0.155873 1.94216e-20)
(-0.919226 0.154049 -1.83254e-20)
(-0.952942 0.152069 -3.56599e-20)
(-0.986487 0.149985 9.74615e-20)
(-1.01988 0.147844 1.07363e-19)
(-1.05314 0.145685 -7.13806e-20)
(-1.08627 0.14354 3.22867e-20)
(-1.11927 0.141434 -3.72606e-20)
(-1.15215 0.139378 -6.57375e-20)
(-1.1849 0.137376 -3.20359e-20)
(-1.21752 0.135425 -3.42897e-20)
(-1.25 0.133523 6.43256e-20)
(-1.28235 0.131663 1.07755e-20)
(-1.31457 0.12984 5.02363e-20)
(-1.34665 0.128045 5.97987e-21)
(-1.37857 0.126271 7.26686e-21)
(-1.41035 0.124511 2.94569e-20)
(-1.44197 0.122755 4.57559e-20)
(-1.47341 0.120997 -7.97728e-21)
(-1.50466 0.119229 1.50105e-19)
(-1.53572 0.117443 1.08836e-19)
(-1.56656 0.115633 2.57432e-20)
(-1.59717 0.113791 5.76597e-20)
(-1.62753 0.111912 -1.34396e-19)
(-1.65762 0.10999 1.96977e-20)
(-1.6874 0.10802 7.88088e-20)
(-1.71687 0.105998 -1.26812e-19)
(-1.746 0.103919 -5.75357e-20)
(-1.77476 0.101781 3.88032e-20)
(-1.80311 0.0995802 3.05048e-20)
(-1.83104 0.0973148 -6.48737e-20)
(-1.85851 0.0949829 1.12365e-19)
(-1.88549 0.0925834 1.31048e-20)
(-1.91195 0.0901152 4.06448e-20)
(-1.93786 0.0875783 -1.33518e-19)
(-1.96319 0.0849726 1.29443e-19)
(-1.98789 0.0822989 2.72059e-20)
(-2.01194 0.0795579 -5.61593e-20)
(-2.0353 0.0767511 -1.02374e-19)
(-2.05793 0.0738799 -5.08465e-20)
(-2.07981 0.0709463 8.15791e-21)
(-2.10089 0.0679524 2.19833e-20)
(-2.12115 0.0649006 -1.03672e-20)
(-2.14054 0.0617933 -7.75645e-20)
(-2.15903 0.0586335 -2.13352e-20)
(-2.17659 0.0554241 -2.35013e-20)
(-2.19318 0.052168 1.40646e-20)
(-2.20877 0.0488683 -4.87329e-20)
(-2.22332 0.0455282 -6.98857e-20)
(-2.23682 0.0421503 -8.59445e-20)
(-2.24921 0.0387377 2.76921e-20)
(-2.26049 0.0352932 -1.01077e-19)
(-2.27061 0.03182 9.80904e-20)
(-2.27956 0.0283216 8.49228e-21)
(-2.28731 0.0248021 -2.30282e-20)
(-2.29385 0.0212666 -4.2749e-20)
(-2.29917 0.0177227 1.47156e-20)
(-2.30325 0.0141805 7.06478e-20)
(-2.30609 0.0106548 5.79209e-20)
(-2.30771 0.00716631 2.55498e-20)
(-2.30808 0.00373558 3.04941e-20)
(-2.30716 0.000363038 1.51103e-20)
(-2.3049 -0.00297925 1.38869e-20)
(-2.30123 -0.00630488 -1.90791e-19)
(-2.29613 -0.0096056 3.72168e-20)
(-2.28957 -0.012878 3.34053e-20)
(-2.28155 -0.0161196 -6.42916e-20)
(-2.27203 -0.0193273 5.41718e-20)
(-2.26102 -0.022498 -1.78208e-20)
(-2.24849 -0.025628 7.61677e-20)
(-2.23446 -0.0287138 5.46772e-20)
(-2.2189 -0.031752 3.78622e-20)
(-2.20182 -0.0347391 -2.45144e-20)
(-2.18321 -0.0376718 2.91723e-20)
(-2.16308 -0.0405468 1.85005e-20)
(-2.14143 -0.0433611 -2.15831e-20)
(-2.11825 -0.0461116 -3.16354e-20)
(-2.09357 -0.0487954 9.63303e-20)
(-2.06737 -0.05141 1.40688e-20)
(-2.03969 -0.0539529 -3.0815e-20)
(-2.01051 -0.0564218 -7.44988e-20)
(-1.97987 -0.0588142 -9.06931e-21)
(-1.94777 -0.0611274 -6.39897e-22)
(-1.91423 -0.0633585 -2.23344e-20)
(-1.87927 -0.0655052 1.92436e-21)
(-1.8429 -0.0675654 1.4627e-20)
(-1.80516 -0.0695371 -3.55363e-20)
(-1.76606 -0.0714191 1.00377e-20)
(-1.72564 -0.0732101 3.09431e-21)
(-1.68391 -0.0749099 8.25278e-21)
(-1.64092 -0.0765186 -1.01604e-21)
(-1.59668 -0.0780369 -1.3075e-21)
(-1.55124 -0.0794651 -1.20202e-20)
(-1.50462 -0.0808027 -1.88747e-21)
(-1.45686 -0.0820447 1.37519e-20)
(-1.408 -0.0831869 -4.47977e-21)
(-1.35807 -0.0842342 -5.26707e-21)
(-1.30712 -0.0851904 1.75905e-20)
(-1.25518 -0.0860529 2.56016e-20)